<?xml version="1.0"?>
<VTKFile type="UnstructuredGrid" version="0.1" byte_order="LittleEndian">
	<UnstructuredGrid>
		<Piece NumberOfPoints="610" NumberOfCells="1134">
			<Points>
				<DataArray type="Float64" Name="Points" NumberOfComponents="3" format="ascii">
					0.00000000
					0.00000000
					0.00000000
					1.00000000
					0.00000000
					0.00000000
					1.00000000
					1.00000000
					0.00000000
					0.00000000
					1.00000000
					0.00000000
					0.04761905
					0.00000000
					0.00000000
					0.09523810
					0.00000000
					0.00000000
					0.14285714
					0.00000000
					0.00000000
					0.19047619
					0.00000000
					0.00000000
					0.23809524
					0.00000000
					0.00000000
					0.28571429
					0.00000000
					0.00000000
					0.33333333
					0.00000000
					0.00000000
					0.38095238
					0.00000000
					0.00000000
					0.42857143
					0.00000000
					0.00000000
					0.47619048
					0.00000000
					0.00000000
					0.52380952
					0.00000000
					0.00000000
					0.57142857
					0.00000000
					0.00000000
					0.61904762
					0.00000000
					0.00000000
					0.66666667
					0.00000000
					0.00000000
					0.71428571
					0.00000000
					0.00000000
					0.76190476
					0.00000000
					0.00000000
					0.80952381
					0.00000000
					0.00000000
					0.85714286
					0.00000000
					0.00000000
					0.90476190
					0.00000000
					0.00000000
					0.95238095
					0.00000000
					0.00000000
					1.00000000
					0.04761905
					0.00000000
					1.00000000
					0.09523810
					0.00000000
					1.00000000
					0.14285714
					0.00000000
					1.00000000
					0.19047619
					0.00000000
					1.00000000
					0.23809524
					0.00000000
					1.00000000
					0.28571429
					0.00000000
					1.00000000
					0.33333333
					0.00000000
					1.00000000
					0.38095238
					0.00000000
					1.00000000
					0.42857143
					0.00000000
					1.00000000
					0.47619048
					0.00000000
					1.00000000
					0.52380952
					0.00000000
					1.00000000
					0.57142857
					0.00000000
					1.00000000
					0.61904762
					0.00000000
					1.00000000
					0.66666667
					0.00000000
					1.00000000
					0.71428571
					0.00000000
					1.00000000
					0.76190476
					0.00000000
					1.00000000
					0.80952381
					0.00000000
					1.00000000
					0.85714286
					0.00000000
					1.00000000
					0.90476190
					0.00000000
					1.00000000
					0.95238095
					0.00000000
					0.95238095
					1.00000000
					0.00000000
					0.90476190
					1.00000000
					0.00000000
					0.85714286
					1.00000000
					0.00000000
					0.80952381
					1.00000000
					0.00000000
					0.76190476
					1.00000000
					0.00000000
					0.71428571
					1.00000000
					0.00000000
					0.66666667
					1.00000000
					0.00000000
					0.61904762
					1.00000000
					0.00000000
					0.57142857
					1.00000000
					0.00000000
					0.52380952
					1.00000000
					0.00000000
					0.47619048
					1.00000000
					0.00000000
					0.42857143
					1.00000000
					0.00000000
					0.38095238
					1.00000000
					0.00000000
					0.33333333
					1.00000000
					0.00000000
					0.28571429
					1.00000000
					0.00000000
					0.23809524
					1.00000000
					0.00000000
					0.19047619
					1.00000000
					0.00000000
					0.14285714
					1.00000000
					0.00000000
					0.09523810
					1.00000000
					0.00000000
					0.04761905
					1.00000000
					0.00000000
					0.00000000
					0.95238095
					0.00000000
					0.00000000
					0.90476190
					0.00000000
					0.00000000
					0.85714286
					0.00000000
					0.00000000
					0.80952381
					0.00000000
					0.00000000
					0.76190476
					0.00000000
					0.00000000
					0.71428571
					0.00000000
					0.00000000
					0.66666667
					0.00000000
					0.00000000
					0.61904762
					0.00000000
					0.00000000
					0.57142857
					0.00000000
					0.00000000
					0.52380952
					0.00000000
					0.00000000
					0.47619048
					0.00000000
					0.00000000
					0.42857143
					0.00000000
					0.00000000
					0.38095238
					0.00000000
					0.00000000
					0.33333333
					0.00000000
					0.00000000
					0.28571429
					0.00000000
					0.00000000
					0.23809524
					0.00000000
					0.00000000
					0.19047619
					0.00000000
					0.00000000
					0.14285714
					0.00000000
					0.00000000
					0.09523810
					0.00000000
					0.00000000
					0.04761905
					0.00000000
					0.17121594
					0.17185519
					0.00000000
					0.82814481
					0.17121594
					0.00000000
					0.73975308
					0.89265998
					0.00000000
					0.50000000
					0.78128146
					0.00000000
					0.71374712
					0.29730691
					0.00000000
					0.11603110
					0.53514316
					0.00000000
					0.50752798
					0.22271805
					0.00000000
					0.10743779
					0.74165892
					0.00000000
					0.86732907
					0.05484056
					0.00000000
					0.88586873
					0.33953062
					0.00000000
					0.35035354
					0.29200802
					0.00000000
					0.70773843
					0.34958625
					0.00000000
					0.64990095
					0.70793120
					0.00000000
					0.59791847
					0.48388574
					0.00000000
					0.24586751
					0.45493003
					0.00000000
					0.20067413
					0.38109029
					0.00000000
					0.38155272
					0.79855057
					0.00000000
					0.58849413
					0.13135227
					0.00000000
					0.58965057
					0.86874677
					0.00000000
					0.86886151
					0.58870091
					0.00000000
					0.25665791
					0.74428775
					0.00000000
					0.90192363
					0.90042933
					0.00000000
					0.61644297
					0.74947919
					0.00000000
					0.89259472
					0.74160842
					0.00000000
					0.43386237
					0.64421980
					0.00000000
					0.17185519
					0.82878406
					0.00000000
					0.88806386
					0.53557631
					0.00000000
					0.28565835
					0.70773299
					0.00000000
					0.07368116
					0.32749283
					0.00000000
					0.32834786
					0.92683140
					0.00000000
					0.32761131
					0.07256357
					0.00000000
					0.89205427
					0.14890247
					0.00000000
					0.92743643
					0.32761131
					0.00000000
					0.17612098
					0.43303809
					0.00000000
					0.43165034
					0.17751348
					0.00000000
					0.42991128
					0.82165641
					0.00000000
					0.49012638
					0.10541002
					0.00000000
					0.82248652
					0.43165034
					0.00000000
					0.46576269
					0.57327371
					0.00000000
					0.18467158
					0.57177572
					0.00000000
					0.81626440
					0.56770298
					0.00000000
					0.56833471
					0.18216776
					0.00000000
					0.56831107
					0.81803603
					0.00000000
					0.43463162
					0.45830007
					0.00000000
					0.33227402
					0.77847895
					0.00000000
					0.22152105
					0.33227402
					0.00000000
					0.66795837
					0.22105822
					0.00000000
					0.67779906
					0.06974110
					0.00000000
					0.93019187
					0.68090362
					0.00000000
					0.67779906
					0.93025890
					0.00000000
					0.06980813
					0.68090362
					0.00000000
					0.58456354
					0.51847140
					0.00000000
					0.45124885
					0.26384700
					0.00000000
					0.73615300
					0.45124885
					0.00000000
					0.55034754
					0.73874593
					0.00000000
					0.61864124
					0.36723894
					0.00000000
					0.38675010
					0.59086156
					0.00000000
					0.78395297
					0.65932819
					0.00000000
					0.30168220
					0.49747371
					0.00000000
					0.26183079
					0.88658746
					0.00000000
					0.53557631
					0.11193614
					0.00000000
					0.11135158
					0.26103219
					0.00000000
					0.35974704
					0.84670018
					0.00000000
					0.64287038
					0.64772320
					0.00000000
					0.56189050
					0.66647342
					0.00000000
					0.66827807
					0.60644567
					0.00000000
					0.89445006
					0.48958462
					0.00000000
					0.31919544
					0.58087718
					0.00000000
					0.53557631
					0.88806386
					0.00000000
					0.74159445
					0.10536120
					0.00000000
					0.44023646
					0.33302097
					0.00000000
					0.25191693
					0.40968436
					0.00000000
					0.59915399
					0.25602356
					0.00000000
					0.39844370
					0.74322697
					0.00000000
					0.74367635
					0.59775718
					0.00000000
					0.39997901
					0.51720745
					0.00000000
					0.09807637
					0.09957067
					0.00000000
					0.90042933
					0.09807637
					0.00000000
					0.70446448
					0.80820638
					0.00000000
					0.31849086
					0.61881980
					0.00000000
					0.31866412
					0.96597041
					0.00000000
					0.03379545
					0.31846230
					0.00000000
					0.31873120
					0.03324102
					0.00000000
					0.70265783
					0.90206105
					0.00000000
					0.47050786
					0.23270203
					0.00000000
					0.76741471
					0.46992344
					0.00000000
					0.92376626
					0.18489507
					0.00000000
					0.15969235
					0.76968495
					0.00000000
					0.84030765
					0.76968495
					0.00000000
					0.69581269
					0.64426386
					0.00000000
					0.30057938
					0.35580018
					0.00000000
					0.61019500
					0.40050527
					0.00000000
					0.14890247
					0.10794573
					0.00000000
					0.59058479
					0.61910701
					0.00000000
					0.64661868
					0.30015513
					0.00000000
					0.29981522
					0.43786643
					0.00000000
					0.64690512
					0.49390897
					0.00000000
					0.05828159
					0.05828159
					0.00000000
					0.05828159
					0.94171841
					0.00000000
					0.94171841
					0.94171841
					0.00000000
					0.94171841
					0.05828159
					0.00000000
					0.05561131
					0.56048148
					0.00000000
					0.56271420
					0.94517599
					0.00000000
					0.94517599
					0.56271420
					0.00000000
					0.56271420
					0.05482401
					0.00000000
					0.85145250
					0.30157753
					0.00000000
					0.30157753
					0.14854750
					0.00000000
					0.84721859
					0.69947601
					0.00000000
					0.14709846
					0.69768654
					0.00000000
					0.25808216
					0.25161686
					0.00000000
					0.74806160
					0.25665706
					0.00000000
					0.74773435
					0.73906485
					0.00000000
					0.28508356
					0.94301192
					0.00000000
					0.05523160
					0.28505163
					0.00000000
					0.28626070
					0.05373672
					0.00000000
					0.94626328
					0.28626070
					0.00000000
					0.62032879
					0.20481751
					0.00000000
					0.54151012
					0.40884310
					0.00000000
					0.20103032
					0.20679235
[...]
			<PointData>
				<DataArray type="Float64" Name="u" format="ascii">
					0.000000000000027 -0.000000000000033 0.000000000000014 0.000000000000004 0.000000000000012 -0.000000000000002 -0.000000000000006 -0.000000000000004 -0.000000000000002 -0.000000000000002 -0.000000000000002 -0.000000000000002 -0.000000000000002 -0.000000000000003 -0.000000000000003 -0.000000000000004 -0.000000000000004 -0.000000000000004 -0.000000000000002 -0.000000000000011 -0.000000000000017 -0.000000000000017 -0.000000000000018 -0.000000000000017 -0.000000000000002 -0.000000000000018 -0.000000000000004 0.000000000000001 0.000000000000000 0.000000000000000 -0.000000000000000 0.000000000000000 -0.000000000000000 -0.000000000000000 -0.000000000000000 -0.000000000000000 0.000000000000000 -0.000000000000000 -0.000000000000001 0.000000000000002 0.000000000000006 -0.000000000000004 -0.000000000000005 -0.000000000000006 0.000000000000005 0.000000000000003 0.000000000000002 0.000000000000002 0.000000000000003 0.000000000000003 0.000000000000004 0.000000000000004 0.000000000000005 0.000000000000005 0.000000000000005 0.000000000000006 0.000000000000006 0.000000000000006 0.000000000000006 0.000000000000006 0.000000000000007 0.000000000000008 0.000000000000009 0.000000000000010 0.000000000000019 -0.000000000000009 0.000000000000001 -0.000000000000001 0.000000000000006 -0.000000000000001 0.000000000000002 0.000000000000001 0.000000000000002 0.000000000000000 -0.000000000000000 0.000000000000000 -0.000000000000000 0.000000000000000 -0.000000000000000 0.000000000000000 0.000000000000000 -0.000000000000000 0.000000000000008 -0.000000000000001 0.000000000000009 -0.000000000000001 0.000000000000002 0.000000000000003 -0.000000000000000 0.000000000000002 -0.000000000000002 0.000000000000002 -0.000000000000007 0.000000000000001 0.000000000000002 0.000000000000000 0.000000000000002 0.000000000000001 0.000000000000003 0.000000000000004 0.000000000000003 -0.000000000000004 0.000000000000003 0.000000000000001 0.000000000000003 -0.000000000000001 0.000000000000002 0.000000000000002 0.000000000000002 0.000000000000003 0.000000000000001 0.000000000000003 0.000000000000003 0.000000000000005 -0.000000000000001 -0.000000000000002 0.000000000000001 0.000000000000003 -0.000000000000002 0.000000000000003 -0.000000000000004 0.000000000000001 0.000000000000002 0.000000000000002 0.000000000000001 -0.000000000000003 0.000000000000003 0.000000000000002 0.000000000000003 0.000000000000004 -0.000000000000002 -0.000000000000008 0.000000000000000 0.000000000000003 0.000000000000001 0.000000000000002 -0.000000000000000 0.000000000000001 0.000000000000003 0.000000000000000 0.000000000000002 0.000000000000002 0.000000000000003 0.000000000000004 -0.000000000000004 0.000000000000006 0.000000000000004 0.000000000000002 0.000000000000002 0.000000000000002 0.000000000000001 0.000000000000002 0.000000000000004 -0.000000000000006 0.000000000000001 0.000000000000003 -0.000000000000002 0.000000000000003 0.000000000000002 0.000000000000002 0.000000000000017 -0.000000000000008 0.000000000000002 0.000000000000003 0.000000000000005 0.000000000000002 -0.000000000000000 0.000000000000003 -0.000000000000001 0.000000000000001 -0.000000000000000 0.000000000000002 0.000000000000002 0.000000000000002 0.000000000000003 0.000000000000001 0.000000000000012 0.000000000000002 -0.000000000000001 0.000000000000003 0.000000000000001 0.000000000000015 0.000000000000008 -0.000000000000002 -0.000000000000010 0.000000000000002 0.000000000000004 0.000000000000000 -0.000000000000004 0.000000000000001 0.000000000000002 0.000000000000001 0.000000000000002 0.000000000000004 -0.000000000000000 0.000000000000002 0.000000000000005 0.000000000000003 -0.000000000000001 0.000000000000001 -0.000000000000003 0.000000000000001 0.000000000000007 0.000000000000002 -0.000000000000001 0.000000000000003 0.000000000000011 0.000000000000001 -0.000000000000003 0.000000000000003 0.000000000000002 0.000000000000001 -0.000000000000001 0.000000000000002 0.000000000000002 0.000000000000001 0.000000000000001 0.000000000000002 -0.000000000000002 0.000000000000003 0.000000000000004 0.000000000000001 0.000000000000003 0.000000000000001 0.000000000000003 -0.000000000000003 0.000000000000005 0.000000000000001 0.000000000000000 0.000000000000002 0.000000000000001 0.000000000000002 -0.000000000000000 -0.000000000000016 0.000000000000000 0.000000000000008 -0.000000000000005 0.000000000000010 -0.000000000000007 -0.000000000000003 0.000000000000003 -0.000000000000000 0.000000000000003 0.000000000000002 -0.000000000000004 0.000000000000001 0.000000000000004 0.000000000000001 0.000000000000002 0.000000000000002 -0.000000000000001 -0.000000000000002 0.000000000000003 0.000000000000003 0.000000000000001 0.000000000000004 0.000000000000004 0.000000000000003 -0.000000000000004 0.000000000000001 0.000000000000002 0.000000000000002 0.000000000000003 -0.000000000000000 0.000000000000003 0.000000000000001 -0.000000000000003 0.000000000000002 -0.000000000000001 0.000000000000002 0.000000000000002 0.000000000000003 0.000000000000005 0.000000000000002 -0.000000000000003 -0.000000000000000 0.000000000000003 0.000000000000001 0.000000000000002 -0.000000000000002 0.000000000000002 -0.000000000000004 0.000000000000005 0.000000000000000 0.000000000000003 0.000000000000003 0.000000000000002 0.000000000000002 0.000000000000001 0.000000000000003 0.000000000000009 0.000000000000002 0.000000000000001 -0.000000000000001 0.000000000000003 0.000000000000001 -0.000000000000006 0.000000000000003 0.000000000000002 0.000000000000000 -0.000000000000004 0.000000000000001 0.000000000000004 0.000000000000001 0.000000000000002 0.000000000000001 -0.000000000000014 0.000000000000001 0.000000000000002 0.000000000000000 0.000000000000003 0.000000000000002 0.000000000000001 0.000000000000002 0.000000000000002 0.000000000000002 0.000000000000001 0.000000000000001 0.000000000000002 0.000000000000002 0.000000000000003 0.000000000000002 0.000000000000002 0.000000000000009 -0.000000000000001 0.000000000000003 -0.000000000000001 0.000000000000003 0.000000000000004 0.000000000000002 0.000000000000000 0.000000000000003 0.000000000000001 -0.000000000000003 0.000000000000000 0.000000000000002 0.000000000000004 0.000000000000003 0.000000000000003 0.000000000000003 0.000000000000001 0.000000000000002 0.000000000000006 -0.000000000000008 0.000000000000004 0.000000000000004 0.000000000000001 -0.000000000000002 0.000000000000001 0.000000000000005 0.000000000000006 -0.000000000000001 0.000000000000003 0.000000000000000 0.000000000000002 0.000000000000002 0.000000000000001 0.000000000000001 0.000000000000002 -0.000000000000001 0.000000000000002 0.000000000000003 -0.000000000000000 0.000000000000002 0.000000000000001 0.000000000000001 0.000000000000001 0.000000000000002 0.000000000000002 0.000000000000003 -0.000000000000003 0.000000000000001 0.000000000000002 -0.000000000000003 0.000000000000004 0.000000000000001 0.000000000000002 -0.000000000000002 0.000000000000001 0.000000000000001 0.000000000000002 0.000000000000003 0.000000000000002 0.000000000000002 0.000000000000002 0.000000000000001 0.000000000000002 0.000000000000000 0.000000000000005 0.000000000000002 -0.000000000000002 0.000000000000003 0.000000000000004 -0.000000000000002 0.000000000000001 0.000000000000002 0.000000000000004 0.000000000000001 0.000000000000003 0.000000000000003 0.000000000000002 0.000000000000001 0.000000000000007 0.000000000000004 -0.000000000000002 0.000000000000002 0.000000000000002 0.000000000000001 0.000000000000004 0.000000000000003 0.000000000000016 -0.000000000000003 -0.000000000000005 0.000000000000003 0.000000000000001 0.000000000000004 -0.000000000000000 0.000000000000000 0.000000000000002 0.000000000000004 -0.000000000000004 -0.000000000000002 0.000000000000002 0.000000000000001 0.000000000000003 0.000000000000002 0.000000000000001 0.000000000000002 0.000000000000002 -0.000000000000000 0.000000000000002 0.000000000000002 0.000000000000002 0.000000000000001 0.000000000000004 0.000000000000003 0.000000000000008 0.000000000000001 -0.000000000000000 0.000000000000001 0.000000000000001 0.000000000000001 0.000000000000002 0.000000000000001 0.000000000000001 0.000000000000002 -0.000000000000003 0.000000000000002 0.000000000000004 0.000000000000001 0.000000000000006 0.000000000000003 0.000000000000002 -0.000000000000002 0.000000000000004 0.000000000000002 0.000000000000001 0.000000000000002 0.000000000000001 0.000000000000001 0.000000000000002 0.000000000000002 0.000000000000000 0.000000000000008 0.000000000000001 -0.000000000000000 0.000000000000003 0.000000000000003 0.000000000000001 -0.000000000000005 0.000000000000004 0.000000000000000 0.000000000000002 0.000000000000002 0.000000000000003 0.000000000000001 0.000000000000002 0.000000000000003 -0.000000000000004 0.000000000000006 -0.000000000000008 0.000000000000002 0.000000000000003 -0.000000000000001 0.000000000000002 0.000000000000002 0.000000000000002 0.000000000000001 0.000000000000012 0.000000000000005 -0.000000000000004 -0.000000000000002 0.000000000000010 0.000000000000001 0.000000000000003 0.000000000000007 0.000000000000003 -0.000000000000003 0.000000000000002 0.000000000000005 0.000000000000002 -0.000000000000001 0.000000000000005 0.000000000000002 0.000000000000001 0.000000000000002 0.000000000000003 0.000000000000003 0.000000000000002 -0.000000000000002 0.000000000000000 0.000000000000002 0.000000000000003 0.000000000000001 0.000000000000000 0.000000000000000 0.000000000000002 0.000000000000004 0.000000000000003 -0.000000000000003 0.000000000000001 0.000000000000006 0.000000000000002 -0.000000000000001 0.000000000000002 0.000000000000005 0.000000000000002 0.000000000000002 0.000000000000012 0.000000000000002 -0.000000000000025 0.000000000000001 -0.000000000000006 0.000000000000003 0.000000000000002 0.000000000000001 0.000000000000002 0.000000000000006 0.000000000000004 0.000000000000003 0.000000000000002 0.000000000000005 0.000000000000001 0.000000000000000 -0.000000000000003 0.000000000000001 -0.000000000000000 0.000000000000011 -0.000000000000006 0.000000000000003 -0.000000000000004 0.000000000000001 0.000000000000004 -0.000000000000002 0.000000000000002 0.000000000000002 0.000000000000002 0.000000000000002 0.000000000000001 0.000000000000001 0.000000000000000 0.000000000000000 0.000000000000002 0.000000000000003 0.000000000000001 0.000000000000002 0.000000000000005 -0.000000000000002 0.000000000000001 0.000000000000003 -0.000000000000002 0.000000000000002 0.000000000000010 0.000000000000003 0.000000000000001 0.000000000000002 0.000000000000002 0.000000000000001 0.000000000000002 0.000000000000002 0.000000000000002 0.000000000000001 0.000000000000002 0.000000000000001 0.000000000000002 0.000000000000001 0.000000000000001 0.000000000000002 0.000000000000002 0.000000000000003 0.000000000000002 -0.000000000000004 0.000000000000000 0.000000000000001 0.000000000000004 0.000000000000001 0.000000000000001 0.000000000000002 0.000000000000003 -0.000000000000003 0.000000000000004 -0.000000000000004 0.000000000000002 0.000000000000005 0.000000000000002 0.000000000000005 -0.000000000000003 0.000000000000001 0.000000000000000 0.000000000000006 
				</DataArray>
				<DataArray type="Float64" Name="v" format="ascii">