<?xml version="1.0"?>
<VTKFile type="UnstructuredGrid" version="0.1" byte_order="LittleEndian">
	<UnstructuredGrid>
		<Piece NumberOfPoints="610" NumberOfCells="1134">
			<Points>
				<DataArray type="Float64" Name="Points" NumberOfComponents="3" format="ascii">
					0.00000000
					0.00000000
					0.00000000
					1.00000000
					0.00000000
					0.00000000
					1.00000000
					1.00000000
					0.00000000
					0.00000000
					1.00000000
					0.00000000
					0.04761905
					0.00000000
					0.00000000
					0.09523810
					0.00000000
					0.00000000
					0.14285714
					0.00000000
					0.00000000
					0.19047619
					0.00000000
					0.00000000
					0.23809524
					0.00000000
					0.00000000
					0.28571429
					0.00000000
					0.00000000
					0.33333333
					0.00000000
					0.00000000
					0.38095238
					0.00000000
					0.00000000
					0.42857143
					0.00000000
					0.00000000
					0.47619048
					0.00000000
					0.00000000
					0.52380952
					0.00000000
					0.00000000
					0.57142857
					0.00000000
					0.00000000
					0.61904762
					0.00000000
					0.00000000
					0.66666667
					0.00000000
					0.00000000
					0.71428571
					0.00000000
					0.00000000
					0.76190476
					0.00000000
					0.00000000
					0.80952381
					0.00000000
					0.00000000
					0.85714286
					0.00000000
					0.00000000
					0.90476190
					0.00000000
					0.00000000
					0.95238095
					0.00000000
					0.00000000
					1.00000000
					0.04761905
					0.00000000
					1.00000000
					0.09523810
					0.00000000
					1.00000000
					0.14285714
					0.00000000
					1.00000000
					0.19047619
					0.00000000
					1.00000000
					0.23809524
					0.00000000
					1.00000000
					0.28571429
					0.00000000
					1.00000000
					0.33333333
					0.00000000
					1.00000000
					0.38095238
					0.00000000
					1.00000000
					0.42857143
					0.00000000
					1.00000000
					0.47619048
					0.00000000
					1.00000000
					0.52380952
					0.00000000
					1.00000000
					0.57142857
					0.00000000
					1.00000000
					0.61904762
					0.00000000
					1.00000000
					0.66666667
					0.00000000
					1.00000000
					0.71428571
					0.00000000
					1.00000000
					0.76190476
					0.00000000
					1.00000000
					0.80952381
					0.00000000
					1.00000000
					0.85714286
					0.00000000
					1.00000000
					0.90476190
					0.00000000
					1.00000000
					0.95238095
					0.00000000
					0.95238095
					1.00000000
					0.00000000
					0.90476190
					1.00000000
					0.00000000
					0.85714286
					1.00000000
					0.00000000
					0.80952381
					1.00000000
					0.00000000
					0.76190476
					1.00000000
					0.00000000
					0.71428571
					1.00000000
					0.00000000
					0.66666667
					1.00000000
					0.00000000
					0.61904762
					1.00000000
					0.00000000
					0.57142857
					1.00000000
					0.00000000
					0.52380952
					1.00000000
					0.00000000
					0.47619048
					1.00000000
					0.00000000
					0.42857143
					1.00000000
					0.00000000
					0.38095238
					1.00000000
					0.00000000
					0.33333333
					1.00000000
					0.00000000
					0.28571429
					1.00000000
					0.00000000
					0.23809524
					1.00000000
					0.00000000
					0.19047619
					1.00000000
					0.00000000
					0.14285714
					1.00000000
					0.00000000
					0.09523810
					1.00000000
					0.00000000
					0.04761905
					1.00000000
					0.00000000
					0.00000000
					0.95238095
					0.00000000
					0.00000000
					0.90476190
					0.00000000
					0.00000000
					0.85714286
					0.00000000
					0.00000000
					0.80952381
					0.00000000
					0.00000000
					0.76190476
					0.00000000
					0.00000000
					0.71428571
					0.00000000
					0.00000000
					0.66666667
					0.00000000
					0.00000000
					0.61904762
					0.00000000
					0.00000000
					0.57142857
					0.00000000
					0.00000000
					0.52380952
					0.00000000
					0.00000000
					0.47619048
					0.00000000
					0.00000000
					0.42857143
					0.00000000
					0.00000000
					0.38095238
					0.00000000
					0.00000000
					0.33333333
					0.00000000
					0.00000000
					0.28571429
					0.00000000
					0.00000000
					0.23809524
					0.00000000
					0.00000000
					0.19047619
					0.00000000
					0.00000000
					0.14285714
					0.00000000
					0.00000000
					0.09523810
					0.00000000
					0.00000000
					0.04761905
					0.00000000
					0.17121594
					0.17185519
					0.00000000
					0.82814481
					0.17121594
					0.00000000
					0.73975308
					0.89265998
					0.00000000
					0.50000000
					0.78128146
					0.00000000
					0.71374712
					0.29730691
					0.00000000
					0.11603110
					0.53514316
					0.00000000
					0.50752798
					0.22271805
					0.00000000
					0.10743779
					0.74165892
					0.00000000
					0.86732907
					0.05484056
					0.00000000
					0.88586873
					0.33953062
					0.00000000
					0.35035354
					0.29200802
					0.00000000
					0.70773843
					0.34958625
					0.00000000
					0.64990095
					0.70793120
					0.00000000
					0.59791847
					0.48388574
					0.00000000
					0.24586751
					0.45493003
					0.00000000
					0.20067413
					0.38109029
					0.00000000
					0.38155272
					0.79855057
					0.00000000
					0.58849413
					0.13135227
					0.00000000
					0.58965057
					0.86874677
					0.00000000
					0.86886151
					0.58870091
					0.00000000
					0.25665791
					0.74428775
					0.00000000
					0.90192363
					0.90042933
					0.00000000
					0.61644297
					0.74947919
					0.00000000
					0.89259472
					0.74160842
					0.00000000
					0.43386237
					0.64421980
					0.00000000
					0.17185519
					0.82878406
					0.00000000
					0.88806386
					0.53557631
					0.00000000
					0.28565835
					0.70773299
					0.00000000
					0.07368116
					0.32749283
					0.00000000
					0.32834786
					0.92683140
					0.00000000
					0.32761131
					0.07256357
					0.00000000
					0.89205427
					0.14890247
					0.00000000
					0.92743643
					0.32761131
					0.00000000
					0.17612098
					0.43303809
					0.00000000
					0.43165034
					0.17751348
					0.00000000
					0.42991128
					0.82165641
					0.00000000
					0.49012638
					0.10541002
					0.00000000
					0.82248652
					0.43165034
					0.00000000
					0.46576269
					0.57327371
					0.00000000
					0.18467158
					0.57177572
					0.00000000
					0.81626440
					0.56770298
					0.00000000
					0.56833471
					0.18216776
					0.00000000
					0.56831107
					0.81803603
					0.00000000
					0.43463162
					0.45830007
					0.00000000
					0.33227402
					0.77847895
					0.00000000
					0.22152105
					0.33227402
					0.00000000
					0.66795837
					0.22105822
					0.00000000
					0.67779906
					0.06974110
					0.00000000
					0.93019187
					0.68090362
					0.00000000
					0.67779906
					0.93025890
					0.00000000
					0.06980813
					0.68090362
					0.00000000
					0.58456354
					0.51847140
					0.00000000
					0.45124885
					0.26384700
					0.00000000
					0.73615300
					0.45124885
					0.00000000
					0.55034754
					0.73874593
					0.00000000
					0.61864124
					0.36723894
					0.00000000
					0.38675010
					0.59086156
					0.00000000
					0.78395297
					0.65932819
					0.00000000
					0.30168220
					0.49747371
					0.00000000
					0.26183079
					0.88658746
					0.00000000
					0.53557631
					0.11193614
					0.00000000
					0.11135158
					0.26103219
					0.00000000
					0.35974704
					0.84670018
					0.00000000
					0.64287038
					0.64772320
					0.00000000
					0.56189050
					0.66647342
					0.00000000
					0.66827807
					0.60644567
					0.00000000
					0.89445006
					0.48958462
					0.00000000
					0.31919544
					0.58087718
					0.00000000
					0.53557631
					0.88806386
					0.00000000
					0.74159445
					0.10536120
					0.00000000
					0.44023646
					0.33302097
					0.00000000
					0.25191693
					0.40968436
					0.00000000
					0.59915399
					0.25602356
					0.00000000
					0.39844370
					0.74322697
					0.00000000
					0.74367635
					0.59775718
					0.00000000
					0.39997901
					0.51720745
					0.00000000
					0.09807637
					0.09957067
					0.00000000
					0.90042933
					0.09807637
					0.00000000
					0.70446448
					0.80820638
					0.00000000
					0.31849086
					0.61881980
					0.00000000
					0.31866412
					0.96597041
					0.00000000
					0.03379545
					0.31846230
					0.00000000
					0.31873120
					0.03324102
					0.00000000
					0.70265783
					0.90206105
					0.00000000
					0.47050786
					0.23270203
					0.00000000
					0.76741471
					0.46992344
					0.00000000
					0.92376626
					0.18489507
					0.00000000
					0.15969235
					0.76968495
					0.00000000
					0.84030765
					0.76968495
					0.00000000
					0.69581269
					0.64426386
					0.00000000
					0.30057938
					0.35580018
					0.00000000
					0.61019500
					0.40050527
					0.00000000
					0.14890247
					0.10794573
					0.00000000
					0.59058479
					0.61910701
					0.00000000
					0.64661868
					0.30015513
					0.00000000
					0.29981522
					0.43786643
					0.00000000
					0.64690512
					0.49390897
					0.00000000
					0.05828159
					0.05828159
					0.00000000
					0.05828159
					0.94171841
					0.00000000
					0.94171841
					0.94171841
					0.00000000
					0.94171841
					0.05828159
					0.00000000
					0.05561131
					0.56048148
					0.00000000
					0.56271420
					0.94517599
					0.00000000
					0.94517599
					0.56271420
					0.00000000
					0.56271420
					0.05482401
					0.00000000
					0.85145250
					0.30157753
					0.00000000
					0.30157753
					0.14854750
					0.00000000
					0.84721859
					0.69947601
					0.00000000
					0.14709846
					0.69768654
					0.00000000
					0.25808216
					0.25161686
					0.00000000
					0.74806160
					0.25665706
					0.00000000
					0.74773435
					0.73906485
					0.00000000
					0.28508356
					0.94301192
					0.00000000
					0.05523160
					0.28505163
					0.00000000
					0.28626070
					0.05373672
					0.00000000
					0.94626328
					0.28626070
					0.00000000
					0.62032879
					0.20481751
					0.00000000
					0.54151012
					0.40884310
					0.00000000
					0.20103032
					0.20679235
[...]
			<PointData>
				<DataArray type="Float64" Name="u" format="ascii">
					0.000000000000180 -0.000000000000595 0.000000000000301 -0.000000000000060 0.000000022247019 0.000000022990347 0.000000035656858 -0.000000009835042 -0.000000004106493 0.000000001067373 -0.000000020734216 -0.000000048946434 0.000000045671056 -0.000000015448829 0.000000015347013 0.000000050429997 0.000000031286421 0.000000001673081 0.000000080284524 0.000000024280961 0.000000014026426 -0.000000018085104 -0.000000025844250 -0.000000032256424 0.000000000000432 -0.000000000001233 -0.000000000000084 0.000000000000039 0.000000000000005 0.000000000000005 0.000000000000002 0.000000000000002 -0.000000000000008 0.000000000000000 -0.000000000000004 -0.000000000000008 -0.000000000000001 -0.000000000000005 0.000000000000028 -0.000000000000020 0.000000000000146 0.000000000000047 -0.000000000000298 -0.000000000000051 0.000000006071407 0.000000026557524 0.000000055177654 0.000000003974095 0.000000016384017 -0.000000031610504 0.000000005272424 -0.000000038095373 -0.000000061763477 -0.000000009485028 0.000000032297651 -0.000000018012905 0.000000059873668 0.000000016427046 -0.000000024944867 -0.000000024620732 -0.000000008087665 -0.000000043484953 -0.000000023963924 -0.000000007956621 0.000000000000757 -0.000000000000370 -0.000000000000047 -0.000000000000175 0.000000000000548 -0.000000000000125 0.000000000000000 -0.000000000000003 0.000000000000101 0.000000000000003 0.000000000000006 -0.000000000000009 -0.000000000000001 0.000000000000001 0.000000000000008 -0.000000000000012 0.000000000000003 0.000000000000067 0.000000000000084 0.000000000000346 0.000000001692702 0.000000015198985 -0.000000007236483 -0.000000022522608 0.000000019702425 0.000000012149719 -0.000000025822042 0.000000029503916 -0.000000008514561 0.000000020230558 -0.000000036097249 0.000000011127366 -0.000000040571061 -0.000000010835551 0.000000008025535 -0.000000022639834 -0.000000008372966 -0.000000040983872 0.000000057797679 -0.000000026900918 0.000000018886895 -0.000000014268204 0.000000000983642 -0.000000020387219 -0.000000009425700 -0.000000008382556 -0.000000006425656 0.000000023290503 -0.000000021812105 0.000000004561102 -0.000000006065384 -0.000000005388985 0.000000010159479 0.000000017910721 0.000000017456219 -0.000000014923488 -0.000000005217301 0.000000016029805 0.000000027297676 0.000000022048704 -0.000000030975290 0.000000014587432 -0.000000018602387 -0.000000013143944 -0.000000024901728 -0.000000014643246 -0.000000056668172 -0.000000000955390 0.000000006217696 -0.000000003734519 0.000000000365541 0.000000003665321 0.000000002191686 0.000000079200365 -0.000000014808627 -0.000000007567067 0.000000020913475 -0.000000046217094 0.000000035041139 0.000000028128235 -0.000000021634703 -0.000000000308489 -0.000000007281874 -0.000000049202825 -0.000000006200652 -0.000000006391496 -0.000000009544026 0.000000008063615 0.000000033194032 -0.000000024659077 -0.000000003171054 -0.000000053650889 -0.000000052057196 -0.000000027354300 -0.000000036654974 -0.000000019907175 -0.000000020266379 0.000000031315334 0.000000033473004 -0.000000063692877 0.000000007771186 -0.000000012562707 -0.000000015274072 0.000000024230365 0.000000003623237 0.000000032111347 -0.000000027116151 -0.000000002009740 -0.000000007663831 -0.000000032706051 0.000000012211781 0.000000017366729 -0.000000014797551 -0.000000049916879 0.000000048702300 -0.000000032617683 0.000000014167049 -0.000000016783555 0.000000036521947 -0.000000024262027 0.000000016092870 0.000000017702484 0.000000038061113 -0.000000001516536 -0.000000026799389 -0.000000035024808 0.000000010537812 0.000000037907207 -0.000000041846290 -0.000000001521465 -0.000000009845434 -0.000000025894386 0.000000008965905 0.000000013263422 -0.000000009468466 0.000000002591710 0.000000002286687 0.000000018295595 0.000000032583955 0.000000009898459 -0.000000001853403 -0.000000007010009 0.000000028287904 0.000000027862657 0.000000047792691 0.000000024935161 0.000000002876296 -0.000000010085194 0.000000009941543 -0.000000029356422 -0.000000022157549 -0.000000017656633 -0.000000014946580 -0.000000013468801 0.000000024719103 -0.000000016109040 -0.000000035727186 0.000000001394951 0.000000018353629 0.000000017070236 0.000000018441619 -0.000000030734808 0.000000014963063 0.000000020901724 -0.000000008667219 0.000000024876902 -0.000000010408150 -0.000000039558823 -0.000000022172492 -0.000000002641090 0.000000002803627 0.000000011305749 -0.000000001354836 -0.000000001901799 -0.000000028600390 0.000000021852071 -0.000000007945746 0.000000001361707 0.000000016542526 0.000000005710683 0.000000031195156 0.000000025984893 -0.000000015249099 0.000000038910795 0.000000016813792 0.000000032474649 0.000000060225267 0.000000028049188 -0.000000013616869 -0.000000027389697 0.000000027863508 -0.000000013360574 -0.000000056890747 0.000000025150413 0.000000028148904 0.000000005910040 -0.000000059908788 -0.000000049214462 0.000000000809301 0.000000024698464 0.000000017551490 0.000000036131558 0.000000048499688 -0.000000013800147 0.000000043790886 0.000000044226364 0.000000033000131 -0.000000001650015 -0.000000005329297 -0.000000042395588 0.000000019558139 0.000000014314087 0.000000009654124 -0.000000010979614 -0.000000000926591 -0.000000021424162 -0.000000010061320 0.000000006313342 0.000000006789504 0.000000004333551 0.000000012927801 -0.000000031452078 -0.000000051746237 0.000000062642477 0.000000025557324 0.000000039504395 -0.000000027589287 -0.000000037889639 0.000000009308442 0.000000042492255 0.000000007960173 0.000000045061319 0.000000015593498 0.000000010689860 0.000000013775810 0.000000009153242 0.000000005860428 -0.000000009150479 -0.000000000064180 0.000000008526306 0.000000022766128 0.000000013850299 0.000000017438061 0.000000023006984 -0.000000023930103 -0.000000023841518 -0.000000023046689 0.000000017667628 0.000000011416838 -0.000000024101139 0.000000001041831 -0.000000003437394 -0.000000035358594 0.000000027341365 -0.000000028041792 -0.000000021297945 -0.000000000526652 -0.000000011811513 0.000000011658358 0.000000016639949 0.000000072731398 0.000000055099569 -0.000000012052146 0.000000024585623 -0.000000037667722 -0.000000016812947 -0.000000016919662 0.000000006731062 -0.000000004262344 0.000000013750280 -0.000000016153550 -0.000000004484966 0.000000001109310 0.000000003641001 -0.000000011286440 -0.000000004155622 -0.000000012038490 -0.000000004428222 -0.000000031771352 -0.000000011639456 -0.000000052659902 -0.000000040287175 0.000000022460883 -0.000000026041249 -0.000000027403290 0.000000029391846 -0.000000003231203 0.000000011881456 0.000000047718909 0.000000009545882 0.000000046867677 0.000000003317027 0.000000029615838 0.000000011133157 0.000000030023582 0.000000020663221 0.000000012201936 0.000000015647339 -0.000000043642733 0.000000019632912 0.000000024674749 0.000000024472137 0.000000066589455 -0.000000037962278 0.000000019130586 -0.000000019870457 0.000000049986583 0.000000007789248 -0.000000025506088 0.000000052693422 -0.000000054729736 0.000000058539602 -0.000000025989533 0.000000070845732 0.000000049080372 -0.000000013292447 0.000000038114729 -0.000000041338517 0.000000012694316 -0.000000038439770 0.000000009232164 0.000000016535345 -0.000000020637516 0.000000010096046 -0.000000006216914 0.000000014634987 -0.000000029534071 0.000000046407170 0.000000012025409 0.000000012032759 -0.000000011495966 0.000000035924852 0.000000030058475 0.000000024139315 0.000000030115486 0.000000015170882 0.000000014093799 -0.000000005660405 0.000000025469125 0.000000075282387 0.000000026176743 0.000000004810633 -0.000000000232782 0.000000020137490 0.000000008151497 0.000000023012870 -0.000000001435770 -0.000000005915681 0.000000031615089 0.000000003613144 -0.000000046900372 -0.000000005916811 -0.000000006954524 -0.000000008813727 -0.000000002469417 -0.000000056668286 -0.000000040707407 -0.000000041949589 -0.000000027753549 0.000000003112867 -0.000000029709423 -0.000000003918573 -0.000000014122036 -0.000000013003466 -0.000000005675769 -0.000000008096709 -0.000000016061039 0.000000014317634 0.000000059595489 -0.000000016482622 0.000000016462737 0.000000035179611 0.000000014625504 0.000000000754851 0.000000001204831 0.000000006291321 -0.000000003159186 0.000000000162800 -0.000000010648143 -0.000000004906912 0.000000033713432 0.000000004985604 -0.000000010585607 0.000000020810286 -0.000000001849489 0.000000018890138 -0.000000026850630 -0.000000004200950 0.000000022652651 -0.000000012817434 -0.000000013978121 -0.000000000104359 -0.000000038697207 -0.000000003363733 -0.000000020117131 0.000000048012486 -0.000000002886221 -0.000000018010079 -0.000000005229220 -0.000000006352040 -0.000000030443583 -0.000000048963153 0.000000018491577 -0.000000013472148 -0.000000015816917 0.000000004032413 0.000000013037678 -0.000000071704060 0.000000022278159 0.000000009883878 -0.000000050499134 0.000000024197892 0.000000032479934 0.000000005576621 -0.000000021724480 0.000000006267530 -0.000000027679259 -0.000000000329596 0.000000010995892 0.000000003286641 0.000000001173665 0.000000029963386 -0.000000025412061 -0.000000001023921 -0.000000012382044 0.000000027019395 -0.000000035658241 0.000000046109682 0.000000047884475 -0.000000045119984 0.000000007671153 -0.000000012009761 -0.000000026696641 -0.000000004707008 0.000000015469778 -0.000000052085492 -0.000000047939295 -0.000000015044644 -0.000000036856548 0.000000047474490 0.000000026284231 0.000000001007653 0.000000053497093 0.000000029750392 -0.000000008271139 -0.000000009503344 0.000000013535529 -0.000000022717553 -0.000000026032196 0.000000021597647 0.000000008672081 -0.000000020871731 -0.000000027958243 -0.000000022945477 -0.000000042781834 -0.000000002266927 0.000000005438327 -0.000000015005083 -0.000000005715540 0.000000007729069 -0.000000000067708 0.000000036706110 -0.000000034569317 -0.000000029106835 0.000000009821054 -0.000000017070555 0.000000017160569 -0.000000015709915 0.000000009461716 -0.000000009723300 0.000000021852977 -0.000000018231897 0.000000050773009 -0.000000021848003 0.000000014733581 0.000000001909527 -0.000000014044769 0.000000034646378 0.000000013811333 -0.000000020254538 -0.000000012528812 0.000000010302362 0.000000006817791 0.000000009202985 -0.000000030040698 -0.000000063483530 -0.000000008545907 0.000000000553713 0.000000016844532 0.000000043005526 -0.000000002628062 -0.000000044232116 -0.000000028440799 -0.000000007138042 0.000000017632643 -0.000000044312696 -0.000000029118696 -0.000000028867168 -0.000000059359835 -0.000000064332482 0.000000002206304 -0.000000048205328 -0.000000009078510 0.000000004337800 0.000000008978432 0.000000006674002 0.000000063157232 0.000000047767643 0.000000063988807 0.000000039217999 0.000000054565298 0.000000034796931 0.000000037175678 -0.000000036754279 0.000000027528848 -0.000000005413120 0.000000005030878 0.000000028066207 -0.000000000548974 0.000000041127601 -0.000000025553992 -0.000000002151256 -0.000000002119163 -0.000000005491142 0.000000012632235 0.000000027188463 0.000000044194684 0.000000021752206 0.000000004452990 0.000000001793029 -0.000000018038241 0.000000029374274 0.000000031341979 0.000000006458293 -0.000000036336862 0.000000044609638 0.000000047727552 -0.000000027154890 -0.000000029556617 -0.000000033439871 -0.000000000605159 0.000000034219710 -0.000000038501646 -0.000000012709188 -0.000000002243199 -0.000000024389356 
				</DataArray>
				<DataArray type="Float64" Name="v" format="ascii">