<?xml version="1.0"?>
<VTKFile type="UnstructuredGrid" version="0.1" byte_order="LittleEndian">
	<UnstructuredGrid>
		<Piece NumberOfPoints="610" NumberOfCells="1134">
			<Points>
				<DataArray type="Float64" Name="Points" NumberOfComponents="3" format="ascii">
					0.00000000
					0.00000000
					0.00000000
					1.00000000
					0.00000000
					0.00000000
					1.00000000
					1.00000000
					0.00000000
					0.00000000
					1.00000000
					0.00000000
					0.04761905
					0.00000000
					0.00000000
					0.09523810
					0.00000000
					0.00000000
					0.14285714
					0.00000000
					0.00000000
					0.19047619
					0.00000000
					0.00000000
					0.23809524
					0.00000000
					0.00000000
					0.28571429
					0.00000000
					0.00000000
					0.33333333
					0.00000000
					0.00000000
					0.38095238
					0.00000000
					0.00000000
					0.42857143
					0.00000000
					0.00000000
					0.47619048
					0.00000000
					0.00000000
					0.52380952
					0.00000000
					0.00000000
					0.57142857
					0.00000000
					0.00000000
					0.61904762
					0.00000000
					0.00000000
					0.66666667
					0.00000000
					0.00000000
					0.71428571
					0.00000000
					0.00000000
					0.76190476
					0.00000000
					0.00000000
					0.80952381
					0.00000000
					0.00000000
					0.85714286
					0.00000000
					0.00000000
					0.90476190
					0.00000000
					0.00000000
					0.95238095
					0.00000000
					0.00000000
					1.00000000
					0.04761905
					0.00000000
					1.00000000
					0.09523810
					0.00000000
					1.00000000
					0.14285714
					0.00000000
					1.00000000
					0.19047619
					0.00000000
					1.00000000
					0.23809524
					0.00000000
					1.00000000
					0.28571429
					0.00000000
					1.00000000
					0.33333333
					0.00000000
					1.00000000
					0.38095238
					0.00000000
					1.00000000
					0.42857143
					0.00000000
					1.00000000
					0.47619048
					0.00000000
					1.00000000
					0.52380952
					0.00000000
					1.00000000
					0.57142857
					0.00000000
					1.00000000
					0.61904762
					0.00000000
					1.00000000
					0.66666667
					0.00000000
					1.00000000
					0.71428571
					0.00000000
					1.00000000
					0.76190476
					0.00000000
					1.00000000
					0.80952381
					0.00000000
					1.00000000
					0.85714286
					0.00000000
					1.00000000
					0.90476190
					0.00000000
					1.00000000
					0.95238095
					0.00000000
					0.95238095
					1.00000000
					0.00000000
					0.90476190
					1.00000000
					0.00000000
					0.85714286
					1.00000000
					0.00000000
					0.80952381
					1.00000000
					0.00000000
					0.76190476
					1.00000000
					0.00000000
					0.71428571
					1.00000000
					0.00000000
					0.66666667
					1.00000000
					0.00000000
					0.61904762
					1.00000000
					0.00000000
					0.57142857
					1.00000000
					0.00000000
					0.52380952
					1.00000000
					0.00000000
					0.47619048
					1.00000000
					0.00000000
					0.42857143
					1.00000000
					0.00000000
					0.38095238
					1.00000000
					0.00000000
					0.33333333
					1.00000000
					0.00000000
					0.28571429
					1.00000000
					0.00000000
					0.23809524
					1.00000000
					0.00000000
					0.19047619
					1.00000000
					0.00000000
					0.14285714
					1.00000000
					0.00000000
					0.09523810
					1.00000000
					0.00000000
					0.04761905
					1.00000000
					0.00000000
					0.00000000
					0.95238095
					0.00000000
					0.00000000
					0.90476190
					0.00000000
					0.00000000
					0.85714286
					0.00000000
					0.00000000
					0.80952381
					0.00000000
					0.00000000
					0.76190476
					0.00000000
					0.00000000
					0.71428571
					0.00000000
					0.00000000
					0.66666667
					0.00000000
					0.00000000
					0.61904762
					0.00000000
					0.00000000
					0.57142857
					0.00000000
					0.00000000
					0.52380952
					0.00000000
					0.00000000
					0.47619048
					0.00000000
					0.00000000
					0.42857143
					0.00000000
					0.00000000
					0.38095238
					0.00000000
					0.00000000
					0.33333333
					0.00000000
					0.00000000
					0.28571429
					0.00000000
					0.00000000
					0.23809524
					0.00000000
					0.00000000
					0.19047619
					0.00000000
					0.00000000
					0.14285714
					0.00000000
					0.00000000
					0.09523810
					0.00000000
					0.00000000
					0.04761905
					0.00000000
					0.17121594
					0.17185519
					0.00000000
					0.82814481
					0.17121594
					0.00000000
					0.73975308
					0.89265998
					0.00000000
					0.50000000
					0.78128146
					0.00000000
					0.71374712
					0.29730691
					0.00000000
					0.11603110
					0.53514316
					0.00000000
					0.50752798
					0.22271805
					0.00000000
					0.10743779
					0.74165892
					0.00000000
					0.86732907
					0.05484056
					0.00000000
					0.88586873
					0.33953062
					0.00000000
					0.35035354
					0.29200802
					0.00000000
					0.70773843
					0.34958625
					0.00000000
					0.64990095
					0.70793120
					0.00000000
					0.59791847
					0.48388574
					0.00000000
					0.24586751
					0.45493003
					0.00000000
					0.20067413
					0.38109029
					0.00000000
					0.38155272
					0.79855057
					0.00000000
					0.58849413
					0.13135227
					0.00000000
					0.58965057
					0.86874677
					0.00000000
					0.86886151
					0.58870091
					0.00000000
					0.25665791
					0.74428775
					0.00000000
					0.90192363
					0.90042933
					0.00000000
					0.61644297
					0.74947919
					0.00000000
					0.89259472
					0.74160842
					0.00000000
					0.43386237
					0.64421980
					0.00000000
					0.17185519
					0.82878406
					0.00000000
					0.88806386
					0.53557631
					0.00000000
					0.28565835
					0.70773299
					0.00000000
					0.07368116
					0.32749283
					0.00000000
					0.32834786
					0.92683140
					0.00000000
					0.32761131
					0.07256357
					0.00000000
					0.89205427
					0.14890247
					0.00000000
					0.92743643
					0.32761131
					0.00000000
					0.17612098
					0.43303809
					0.00000000
					0.43165034
					0.17751348
					0.00000000
					0.42991128
					0.82165641
					0.00000000
					0.49012638
					0.10541002
					0.00000000
					0.82248652
					0.43165034
					0.00000000
					0.46576269
					0.57327371
					0.00000000
					0.18467158
					0.57177572
					0.00000000
					0.81626440
					0.56770298
					0.00000000
					0.56833471
					0.18216776
					0.00000000
					0.56831107
					0.81803603
					0.00000000
					0.43463162
					0.45830007
					0.00000000
					0.33227402
					0.77847895
					0.00000000
					0.22152105
					0.33227402
					0.00000000
					0.66795837
					0.22105822
					0.00000000
					0.67779906
					0.06974110
					0.00000000
					0.93019187
					0.68090362
					0.00000000
					0.67779906
					0.93025890
					0.00000000
					0.06980813
					0.68090362
					0.00000000
					0.58456354
					0.51847140
					0.00000000
					0.45124885
					0.26384700
					0.00000000
					0.73615300
					0.45124885
					0.00000000
					0.55034754
					0.73874593
					0.00000000
					0.61864124
					0.36723894
					0.00000000
					0.38675010
					0.59086156
					0.00000000
					0.78395297
					0.65932819
					0.00000000
					0.30168220
					0.49747371
					0.00000000
					0.26183079
					0.88658746
					0.00000000
					0.53557631
					0.11193614
					0.00000000
					0.11135158
					0.26103219
					0.00000000
					0.35974704
					0.84670018
					0.00000000
					0.64287038
					0.64772320
					0.00000000
					0.56189050
					0.66647342
					0.00000000
					0.66827807
					0.60644567
					0.00000000
					0.89445006
					0.48958462
					0.00000000
					0.31919544
					0.58087718
					0.00000000
					0.53557631
					0.88806386
					0.00000000
					0.74159445
					0.10536120
					0.00000000
					0.44023646
					0.33302097
					0.00000000
					0.25191693
					0.40968436
					0.00000000
					0.59915399
					0.25602356
					0.00000000
					0.39844370
					0.74322697
					0.00000000
					0.74367635
					0.59775718
					0.00000000
					0.39997901
					0.51720745
					0.00000000
					0.09807637
					0.09957067
					0.00000000
					0.90042933
					0.09807637
					0.00000000
					0.70446448
					0.80820638
					0.00000000
					0.31849086
					0.61881980
					0.00000000
					0.31866412
					0.96597041
					0.00000000
					0.03379545
					0.31846230
					0.00000000
					0.31873120
					0.03324102
					0.00000000
					0.70265783
					0.90206105
					0.00000000
					0.47050786
					0.23270203
					0.00000000
					0.76741471
					0.46992344
					0.00000000
					0.92376626
					0.18489507
					0.00000000
					0.15969235
					0.76968495
					0.00000000
					0.84030765
					0.76968495
					0.00000000
					0.69581269
					0.64426386
					0.00000000
					0.30057938
					0.35580018
					0.00000000
					0.61019500
					0.40050527
					0.00000000
					0.14890247
					0.10794573
					0.00000000
					0.59058479
					0.61910701
					0.00000000
					0.64661868
					0.30015513
					0.00000000
					0.29981522
					0.43786643
					0.00000000
					0.64690512
					0.49390897
					0.00000000
					0.05828159
					0.05828159
					0.00000000
					0.05828159
					0.94171841
					0.00000000
					0.94171841
					0.94171841
					0.00000000
					0.94171841
					0.05828159
					0.00000000
					0.05561131
					0.56048148
					0.00000000
					0.56271420
					0.94517599
					0.00000000
					0.94517599
					0.56271420
					0.00000000
					0.56271420
					0.05482401
					0.00000000
					0.85145250
					0.30157753
					0.00000000
					0.30157753
					0.14854750
					0.00000000
					0.84721859
					0.69947601
					0.00000000
					0.14709846
					0.69768654
					0.00000000
					0.25808216
					0.25161686
					0.00000000
					0.74806160
					0.25665706
					0.00000000
					0.74773435
					0.73906485
					0.00000000
					0.28508356
					0.94301192
					0.00000000
					0.05523160
					0.28505163
					0.00000000
					0.28626070
					0.05373672
					0.00000000
					0.94626328
					0.28626070
					0.00000000
					0.62032879
					0.20481751
					0.00000000
					0.54151012
					0.40884310
					0.00000000
					0.20103032
					0.20679235
[...]
			<PointData>
				<DataArray type="Float64" Name="pressure" format="ascii">
					106.048880355484116 0.000000000000000 0.000000000000000 113.313769612302451 -0.000000134888386 -0.000000737103236 -0.000000079246614 -0.000000314895361 -0.000000289679141 -0.000000105063213 -0.000000350264100 -0.000000214209909 -0.000000193328846 -0.000000006033597 -0.000000749101602 -0.000000087374716 -0.000000234702945 -0.000000224123922 -0.000000259044967 -0.000000053484710 -0.000000266012902 -0.000000104000304 -0.000000739347177 -0.000000145658396 0.000000000000000 0.000000000000000 0.000000000000000 0.000000000000000 0.000000000000000 0.000000000000000 0.000000000000000 0.000000000000000 0.000000000000000 0.000000000000000 0.000000000000000 0.000000000000000 0.000000000000000 0.000000000000000 0.000000000000000 0.000000000000000 0.000000000000000 0.000000000000000 0.000000000000000 0.000000000000000 0.000000153671884 0.000000737059801 0.000000077982548 0.000000249671302 0.000000056454968 0.000000256288305 0.000000224123922 0.000000234702945 0.000000087374716 0.000000749101602 0.000000006033597 0.000000193385587 0.000000213938162 0.000000347543357 0.000000093820300 0.000000304631905 0.000000354781682 0.000000095635461 0.000000739027511 0.000000140842298 49.782556489834029 152.571369464570552 44.869952000318214 86.716413768156343 44.746008919427950 79.842460545313884 74.627136113379592 74.108782571906644 46.946238717775522 159.743921614114271 39.864096538746878 83.334160310108103 84.674986955483931 81.234844185073712 55.873133372423631 97.832493761086880 82.288035924865795 47.990719250664597 153.260130074578655 50.651102918645130 0.000000072832341 0.000000027766556 -0.000000034595416 -0.000000076301519 0.000000074923237 -0.000000068315353 0.000000004667791 0.000000102592515 -0.000000085285650 -0.000000024922225 -0.000000133282669 -0.000000003870509 0.000000138853084 0.000000051141837 -0.000000040879283 -0.000000075656396 0.000000005619950 -0.000000084581869 0.000000078874362 -0.000000030920834 0.000000071277074 0.000000067871403 -0.000000063213760 0.000000106076251 0.000000128646132 -0.000000027154985 -0.000000051459934 -0.000000083415614 0.000000070096681 0.000000077747424 -0.000000082704787 -0.000000028932888 -0.000000126928137 -0.000000098134460 0.000000194579504 0.000000172852877 -0.000000055729079 0.000000016171636 -0.000000114834240 -0.000000106747279 0.000000029853211 -0.000000096330844 0.000000119082150 0.000000026691290 -0.000000107433699 0.000000059012229 0.000000090912246 -0.000000013147914 -0.000000106286167 0.000000015758607 -0.000000107501235 0.000000190679201 -0.000000076540352 0.000000111524304 0.000000070854832 0.000000186544449 0.000000097541310 0.000000027604676 0.000000036385020 -0.000000029237967 0.000000153153541 0.000000091342499 -0.000000049089509 -0.000000073613669 -0.000000092298777 0.000000040484456 0.000000150829238 -0.000000018889164 -0.000000145466011 0.000000043699015 0.000000120288004 -0.000000041171906 -0.000000098235911 0.000000067970471 0.000000041836715 -0.000000097812135 -0.000000068048616 0.000000005353429 0.000000027945372 0.000000138823382 -0.000000120156360 -0.000000079779278 0.000000124547858 -0.000000034014390 0.000000181415945 -0.000000162044496 -0.000000053305229 -0.000000018023109 -0.000000021828625 -0.000000087326808 0.000000059859174 0.000000153519124 -0.000000099688948 0.000000078669522 0.000000120038162 -0.000000116628005 -0.000000094223911 0.000000080411145 -0.000000052888888 -0.000000081085871 0.000000052673210 0.000000133666607 0.000000012098096 0.000000125436031 -0.000000012098096 -0.000000024082883 0.000000118688524 0.000000129633259 0.000000220759140 0.000000095085192 0.000000052052313 -0.000000047811577 -0.000000077070187 0.000000081841987 0.000000076493980 0.000000078347480 0.000000076644194 -0.000000019962560 -0.000000106584981 0.000000128874583 -0.000000136730299 0.000000131941397 0.000000026478996 -0.000000029724546 -0.000000085720650 0.000000086055102 -0.000000063096380 0.000000032085235 0.000000065665296 -0.000000024656804 -0.000000056986664 -0.000000078048474 0.000000049952580 0.000000076008830 0.000000061204711 0.000000061121271 -0.000000061457872 0.000000093703269 -0.000000097387095 -0.000000043019489 0.000000072007144 0.000000065302388 -0.000000065289820 0.000000107648718 0.000000071841361 -0.000000084388670 -0.000000048963560 -0.000000007288193 0.000000107172964 -0.000000111509650 0.000000101882451 0.000000092172724 0.000000118999966 -0.000000007123875 -0.000000091103394 -0.000000120673201 -0.000000063310755 0.000000010679360 -0.000000129579572 -0.000000064202368 -0.000000041854135 0.000000153359691 -0.000000166947497 0.000000063245631 0.000000164912324 -0.000000129507993 0.000000110746332 -0.000000093265141 -0.000000050165940 -0.000000094190160 -0.000000027917819 -0.000000186088900 -0.000000117015193 0.000000175967761 -0.000000189039401 0.000000185059819 -0.000000037213864 -0.000000074842815 0.000000058617756 0.000000138805804 0.000000131504041 -0.000000119119288 -0.000000324067460 0.000000127093426 -0.000000189289665 -0.000000111957478 -0.000000082934036 -0.000000008973771 -0.000000149912295 -0.000000153861862 -0.000000197814587 -0.000000127762784 0.000000196648757 -0.000000021825381 0.000000107583394 0.000000004871865 -0.000000152538540 -0.000000117927810 0.000000117927810 -0.000000066085390 0.000000117814964 -0.000000201114783 0.000000005205408 0.000000004718407 -0.000000001439586 -0.000000002682845 -0.000000041572696 -0.000000107895414 -0.000000083497993 -0.000000051247183 -0.000000029688215 -0.000000116702017 0.000000047507600 -0.000000044523708 0.000000025555485 -0.000000093715405 -0.000000094510966 -0.000000062923695 0.000000107885695 -0.000000033358212 -0.000000033498162 0.000000095287342 0.000000018550280 0.000000074062638 -0.000000069591343 0.000000026839839 -0.000000018430630 -0.000000126906834 0.000000089523851 0.000000013547850 -0.000000129139338 0.000000159288212 0.000000044027089 -0.000000068942971 -0.000000141420291 -0.000000001681698 0.000000113872464 0.000000046879899 -0.000000030025007 -0.000000070982217 0.000000128993755 -0.000000144478743 -0.000000115321741 0.000000024232304 -0.000000074459939 0.000000026983004 0.000000098425108 0.000000036732051 0.000000065343121 0.000000195007752 0.000000000000000 0.000000075322396 -0.000000195007752 0.000000048580911 0.000000007818055 -0.000000137278610 0.000000046111864 0.000000105120912 -0.000000072535955 0.000000043995729 -0.000000053109868 0.000000076885705 0.000000106581170 0.000000046819039 0.000000155947664 -0.000000047184915 -0.000000062262308 -0.000000134934381 0.000000079131754 0.000000196185737 -0.000000058062968 0.000000056758105 0.000000089368442 0.000000088056244 -0.000000122477423 0.000000062632435 0.000000029732404 0.000000059589472 0.000000062872997 -0.000000051079665 0.000000064447122 0.000000034551714 0.000000092459937 0.000000155279810 0.000000119821265 0.000000072314178 0.000000088024419 0.000000148013231 -0.000000034282832 0.000000157400505 -0.000000155927735 -0.000000026860065 0.000000116740396 -0.000000008721007 0.000000039221241 -0.000000136781186 -0.000000110908246 -0.000000132739184 -0.000000137384463 0.000000018653202 -0.000000078864359 -0.000000092086306 -0.000000104084911 0.000000193755291 -0.000000017077033 -0.000000190440580 -0.000000096331321 0.000000120066791 -0.000000074544103 0.000000096026405 0.000000138270040 -0.000000025256421 0.000000077393379 0.000000130270532 0.000000107324977 -0.000000061079172 0.000000165824879 0.000000126291340 0.000000173492780 0.000000033007236 -0.000000022369932 -0.000000174706854 -0.000000060661956 0.000000205567552 0.000000070917012 0.000000143413219 -0.000000101990501 0.000000219488200 0.000000171890038 -0.000000173392201 -0.000000025958336 0.000000071362877 0.000000046277405 0.000000015121785 -0.000000015721134 -0.000000153503430 0.000000091167624 -0.000000081174363 0.000000086499545 -0.000000106343133 -0.000000069415653 0.000000037871685 -0.000000102191169 0.000000136724567 -0.000000102951197 -0.000000104042935 -0.000000260972147 0.000000050780761 -0.000000136873594 -0.000000109589115 0.000000054926036 -0.000000142341789 -0.000000072533370 -0.000000017929378 -0.000000186646223 -0.000000083354606 -0.000000024952842 -0.000000076290047 0.000000077791579 -0.000000078811455 -0.000000041503577 -0.000000073622764 -0.000000072133030 0.000000137566156 0.000000070392411 -0.000000080624300 -0.000000081810748 -0.000000075906308 -0.000000073257562 -0.000000022002489 -0.000000048841205 -0.000000046496340 0.000000086238880 -0.000000081865251 0.000000019389474 -0.000000147567113 -0.000000092657265 0.000000128643316 -0.000000107132556 -0.000000079300670 0.000000053011737 0.000000059312858 0.000000079740523 0.000000094463459 0.000000107734227 -0.000000040400042 0.000000042386905 -0.000000028663166 0.000000075599004 0.000000115093447 -0.000000129156056 0.000000200981466 0.000000112127417 0.000000079649889 0.000000141030347 -0.000000026869932 0.000000036124131 0.000000152753769 0.000000149254739 0.000000004930538 -0.000000084116375 -0.000000055760493 -0.000000064668361 -0.000000027853067 0.000000029639208 0.000000127381987 -0.000000095946215 0.000000169595142 -0.000000156134316 0.000000104138724 -0.000000034639929 0.000000058741921 -0.000000069023002 0.000000065806755 -0.000000065275023 -0.000000136121431 0.000000086570743 -0.000000110860586 0.000000003013095 0.000000143228337 0.000000005055714 -0.000000092737919 0.000000090809132 -0.000000099580711 -0.000000100780147 0.000000072256648 0.000000067196636 0.000000101613497 0.000000071699413 -0.000000023410428 -0.000000181369080 0.000000120427024 -0.000000001619427 -0.000000142690070 0.000000152659593 0.000000228648674 0.000000000000000 -0.000000230810409 0.000000137829500 -0.000000011516910 0.000000055783814 -0.000000057078239 0.000000188896121 -0.000000114887045 -0.000000113386924 0.000000518431179 0.000000329025061 0.000000000000000 -0.000000126876646 0.000000116545356 -0.000000122872322 0.000000140992725 -0.000000080013994 -0.000000071824158 -0.000000169445311 0.000000250322715 0.000000092865296 -0.000000243655278 0.000000152372727 0.000000000000000 0.000000243413208 -0.000000028908234 0.000000191944557 -0.000000194328048 -0.000000164108953 0.000000317057428 0.000000137642152 -0.000000064420304 -0.000000137011134 -0.000000166855947 0.000000164976928 0.000000229160881 0.000000079179979 -0.000000193030375 0.000000193429028 -0.000000035514382 0.000000202749713 -0.000000086916202 -0.000000132672658 0.000000130683938 -0.000000127821132 0.000000116501118 0.000000074248230 -0.000000060901726 0.000000212390278 0.000000159872093 0.000000339135576 -0.000000329179778 0.000000204889634 0.000000005846531 -0.000000192050036 0.000000288326036 0.000000205731490 -0.000000164187997 0.000000048054954 -0.000000043103224 -0.000000261871498 -0.000000010714338 0.000000016173096 -0.000000229767792 -0.000000135929481 -0.000000006055353 -0.000000004742708 -0.000000208467309 -0.000000209811791 -0.000000175885009 0.000000121217166 0.000000009673046 -0.000000100177354 -0.000000092328440 -0.000000009671645 0.000000068952192 -0.000000093452920 -0.000000012400562 0.000000055880768 -0.000000060846030 0.000000082461950 -0.000000064222535 0.000000126215211 -0.000000061573833 0.000000139150422 0.000000005533448 -0.000000002839356 0.000000128417674 0.000000019372782 -0.000000074924923 
				</DataArray>
				<DataArray type="Float64" Name="u" format="ascii">