<?xml version="1.0"?>
<VTKFile type="UnstructuredGrid" version="0.1" byte_order="LittleEndian">
	<UnstructuredGrid>
		<Piece NumberOfPoints="610" NumberOfCells="1134">
			<Points>
				<DataArray type="Float64" Name="Points" NumberOfComponents="3" format="ascii">
					0.00000000
					0.00000000
					0.00000000
					1.00000000
					0.00000000
					0.00000000
					1.00000000
					1.00000000
					0.00000000
					0.00000000
					1.00000000
					0.00000000
					0.04761905
					0.00000000
					0.00000000
					0.09523810
					0.00000000
					0.00000000
					0.14285714
					0.00000000
					0.00000000
					0.19047619
					0.00000000
					0.00000000
					0.23809524
					0.00000000
					0.00000000
					0.28571429
					0.00000000
					0.00000000
					0.33333333
					0.00000000
					0.00000000
					0.38095238
					0.00000000
					0.00000000
					0.42857143
					0.00000000
					0.00000000
					0.47619048
					0.00000000
					0.00000000
					0.52380952
					0.00000000
					0.00000000
					0.57142857
					0.00000000
					0.00000000
					0.61904762
					0.00000000
					0.00000000
					0.66666667
					0.00000000
					0.00000000
					0.71428571
					0.00000000
					0.00000000
					0.76190476
					0.00000000
					0.00000000
					0.80952381
					0.00000000
					0.00000000
					0.85714286
					0.00000000
					0.00000000
					0.90476190
					0.00000000
					0.00000000
					0.95238095
					0.00000000
					0.00000000
					1.00000000
					0.04761905
					0.00000000
					1.00000000
					0.09523810
					0.00000000
					1.00000000
					0.14285714
					0.00000000
					1.00000000
					0.19047619
					0.00000000
					1.00000000
					0.23809524
					0.00000000
					1.00000000
					0.28571429
					0.00000000
					1.00000000
					0.33333333
					0.00000000
					1.00000000
					0.38095238
					0.00000000
					1.00000000
					0.42857143
					0.00000000
					1.00000000
					0.47619048
					0.00000000
					1.00000000
					0.52380952
					0.00000000
					1.00000000
					0.57142857
					0.00000000
					1.00000000
					0.61904762
					0.00000000
					1.00000000
					0.66666667
					0.00000000
					1.00000000
					0.71428571
					0.00000000
					1.00000000
					0.76190476
					0.00000000
					1.00000000
					0.80952381
					0.00000000
					1.00000000
					0.85714286
					0.00000000
					1.00000000
					0.90476190
					0.00000000
					1.00000000
					0.95238095
					0.00000000
					0.95238095
					1.00000000
					0.00000000
					0.90476190
					1.00000000
					0.00000000
					0.85714286
					1.00000000
					0.00000000
					0.80952381
					1.00000000
					0.00000000
					0.76190476
					1.00000000
					0.00000000
					0.71428571
					1.00000000
					0.00000000
					0.66666667
					1.00000000
					0.00000000
					0.61904762
					1.00000000
					0.00000000
					0.57142857
					1.00000000
					0.00000000
					0.52380952
					1.00000000
					0.00000000
					0.47619048
					1.00000000
					0.00000000
					0.42857143
					1.00000000
					0.00000000
					0.38095238
					1.00000000
					0.00000000
					0.33333333
					1.00000000
					0.00000000
					0.28571429
					1.00000000
					0.00000000
					0.23809524
					1.00000000
					0.00000000
					0.19047619
					1.00000000
					0.00000000
					0.14285714
					1.00000000
					0.00000000
					0.09523810
					1.00000000
					0.00000000
					0.04761905
					1.00000000
					0.00000000
					0.00000000
					0.95238095
					0.00000000
					0.00000000
					0.90476190
					0.00000000
					0.00000000
					0.85714286
					0.00000000
					0.00000000
					0.80952381
					0.00000000
					0.00000000
					0.76190476
					0.00000000
					0.00000000
					0.71428571
					0.00000000
					0.00000000
					0.66666667
					0.00000000
					0.00000000
					0.61904762
					0.00000000
					0.00000000
					0.57142857
					0.00000000
					0.00000000
					0.52380952
					0.00000000
					0.00000000
					0.47619048
					0.00000000
					0.00000000
					0.42857143
					0.00000000
					0.00000000
					0.38095238
					0.00000000
					0.00000000
					0.33333333
					0.00000000
					0.00000000
					0.28571429
					0.00000000
					0.00000000
					0.23809524
					0.00000000
					0.00000000
					0.19047619
					0.00000000
					0.00000000
					0.14285714
					0.00000000
					0.00000000
					0.09523810
					0.00000000
					0.00000000
					0.04761905
					0.00000000
					0.17121594
					0.17185519
					0.00000000
					0.82814481
					0.17121594
					0.00000000
					0.73975308
					0.89265998
					0.00000000
					0.50000000
					0.78128146
					0.00000000
					0.71374712
					0.29730691
					0.00000000
					0.11603110
					0.53514316
					0.00000000
					0.50752798
					0.22271805
					0.00000000
					0.10743779
					0.74165892
					0.00000000
					0.86732907
					0.05484056
					0.00000000
					0.88586873
					0.33953062
					0.00000000
					0.35035354
					0.29200802
					0.00000000
					0.70773843
					0.34958625
					0.00000000
					0.64990095
					0.70793120
					0.00000000
					0.59791847
					0.48388574
					0.00000000
					0.24586751
					0.45493003
					0.00000000
					0.20067413
					0.38109029
					0.00000000
					0.38155272
					0.79855057
					0.00000000
					0.58849413
					0.13135227
					0.00000000
					0.58965057
					0.86874677
					0.00000000
					0.86886151
					0.58870091
					0.00000000
					0.25665791
					0.74428775
					0.00000000
					0.90192363
					0.90042933
					0.00000000
					0.61644297
					0.74947919
					0.00000000
					0.89259472
					0.74160842
					0.00000000
					0.43386237
					0.64421980
					0.00000000
					0.17185519
					0.82878406
					0.00000000
					0.88806386
					0.53557631
					0.00000000
					0.28565835
					0.70773299
					0.00000000
					0.07368116
					0.32749283
					0.00000000
					0.32834786
					0.92683140
					0.00000000
					0.32761131
					0.07256357
					0.00000000
					0.89205427
					0.14890247
					0.00000000
					0.92743643
					0.32761131
					0.00000000
					0.17612098
					0.43303809
					0.00000000
					0.43165034
					0.17751348
					0.00000000
					0.42991128
					0.82165641
					0.00000000
					0.49012638
					0.10541002
					0.00000000
					0.82248652
					0.43165034
					0.00000000
					0.46576269
					0.57327371
					0.00000000
					0.18467158
					0.57177572
					0.00000000
					0.81626440
					0.56770298
					0.00000000
					0.56833471
					0.18216776
					0.00000000
					0.56831107
					0.81803603
					0.00000000
					0.43463162
					0.45830007
					0.00000000
					0.33227402
					0.77847895
					0.00000000
					0.22152105
					0.33227402
					0.00000000
					0.66795837
					0.22105822
					0.00000000
					0.67779906
					0.06974110
					0.00000000
					0.93019187
					0.68090362
					0.00000000
					0.67779906
					0.93025890
					0.00000000
					0.06980813
					0.68090362
					0.00000000
					0.58456354
					0.51847140
					0.00000000
					0.45124885
					0.26384700
					0.00000000
					0.73615300
					0.45124885
					0.00000000
					0.55034754
					0.73874593
					0.00000000
					0.61864124
					0.36723894
					0.00000000
					0.38675010
					0.59086156
					0.00000000
					0.78395297
					0.65932819
					0.00000000
					0.30168220
					0.49747371
					0.00000000
					0.26183079
					0.88658746
					0.00000000
					0.53557631
					0.11193614
					0.00000000
					0.11135158
					0.26103219
					0.00000000
					0.35974704
					0.84670018
					0.00000000
					0.64287038
					0.64772320
					0.00000000
					0.56189050
					0.66647342
					0.00000000
					0.66827807
					0.60644567
					0.00000000
					0.89445006
					0.48958462
					0.00000000
					0.31919544
					0.58087718
					0.00000000
					0.53557631
					0.88806386
					0.00000000
					0.74159445
					0.10536120
					0.00000000
					0.44023646
					0.33302097
					0.00000000
					0.25191693
					0.40968436
					0.00000000
					0.59915399
					0.25602356
					0.00000000
					0.39844370
					0.74322697
					0.00000000
					0.74367635
					0.59775718
					0.00000000
					0.39997901
					0.51720745
					0.00000000
					0.09807637
					0.09957067
					0.00000000
					0.90042933
					0.09807637
					0.00000000
					0.70446448
					0.80820638
					0.00000000
					0.31849086
					0.61881980
					0.00000000
					0.31866412
					0.96597041
					0.00000000
					0.03379545
					0.31846230
					0.00000000
					0.31873120
					0.03324102
					0.00000000
					0.70265783
					0.90206105
					0.00000000
					0.47050786
					0.23270203
					0.00000000
					0.76741471
					0.46992344
					0.00000000
					0.92376626
					0.18489507
					0.00000000
					0.15969235
					0.76968495
					0.00000000
					0.84030765
					0.76968495
					0.00000000
					0.69581269
					0.64426386
					0.00000000
					0.30057938
					0.35580018
					0.00000000
					0.61019500
					0.40050527
					0.00000000
					0.14890247
					0.10794573
					0.00000000
					0.59058479
					0.61910701
					0.00000000
					0.64661868
					0.30015513
					0.00000000
					0.29981522
					0.43786643
					0.00000000
					0.64690512
					0.49390897
					0.00000000
					0.05828159
					0.05828159
					0.00000000
					0.05828159
					0.94171841
					0.00000000
					0.94171841
					0.94171841
					0.00000000
					0.94171841
					0.05828159
					0.00000000
					0.05561131
					0.56048148
					0.00000000
					0.56271420
					0.94517599
					0.00000000
					0.94517599
					0.56271420
					0.00000000
					0.56271420
					0.05482401
					0.00000000
					0.85145250
					0.30157753
					0.00000000
					0.30157753
					0.14854750
					0.00000000
					0.84721859
					0.69947601
					0.00000000
					0.14709846
					0.69768654
					0.00000000
					0.25808216
					0.25161686
					0.00000000
					0.74806160
					0.25665706
					0.00000000
					0.74773435
					0.73906485
					0.00000000
					0.28508356
					0.94301192
					0.00000000
					0.05523160
					0.28505163
					0.00000000
					0.28626070
					0.05373672
					0.00000000
					0.94626328
					0.28626070
					0.00000000
					0.62032879
					0.20481751
					0.00000000
					0.54151012
					0.40884310
					0.00000000
					0.20103032
					0.20679235
[...]
			<PointData>
				<DataArray type="Float64" Name="temperature" format="ascii">
					99.959515686339131 0.000000000000000 0.000000000000000 99.959516051136674 95.197724588059089 90.436172387502182 85.674812910762356 80.913694924209366 76.152793774969012 71.392093930799220 66.631604663708799 61.871312906490303 57.111205954889847 52.351271625128405 47.591517014556430 42.831897657550989 38.072431383734873 33.313090638753550 28.553863184410861 23.794729854344066 19.035684474429889 14.276703222769555 9.517777398028660 4.758880010303121 0.000000000000000 -0.000000000000000 0.000000000000000 0.000000000000000 0.000000000000000 0.000000000000000 0.000000000000000 0.000000000000000 0.000000000000000 0.000000000000000 -0.000000000000001 0.000000000000000 0.000000000000000 0.000000000000000 0.000000000000000 0.000000000000000 0.000000000000000 0.000000000000000 -0.000000000000001 0.000000000000000 4.758879888977495 9.517777319315247 14.276703681426261 19.035684960173736 23.794730386798452 28.553863806113259 33.313091344164356 38.072432273080416 42.831898767065482 47.591518313931054 52.351273021617658 57.111207369637270 61.871314210225201 66.631605894634731 71.392095186866896 76.152793632485938 80.913694626264757 85.674813057062266 90.436172642013659 95.197724734110238 99.959507716101768 99.959528972037091 99.959508263590251 99.959523298229243 99.959502447946051 99.959523805951591 99.959520259240819 99.959518876728382 99.959509352349343 99.959530899321990 99.959501823899558 99.959519641503860 99.959520820047246 99.959519521648716 99.959506301943605 99.959517939106462 99.959517260962315 99.959510810008780 99.959530409855276 99.959508145803156 82.839373225528547 17.174721998999285 26.008598717672751 49.971376982519381 28.607689731858947 88.357080141079408 49.218920739671162 89.216311222922570 13.258717179340023 11.405907880620799 64.930135233755593 29.208218862926767 34.988745613459400 40.184249540355168 75.375743483671499 79.894088162907181 61.811294630085726 41.126197920965119 41.010613639663106 13.105567041449154 74.296977042826612 9.801423101819843 38.332761785375553 10.733729615034328 56.582324446673077 82.775462883122174 11.186533143361576 71.397689077713864 92.591674257252137 67.129998310528279 67.203628402174317 10.787741366540033 7.251752634580448 82.348965274771729 56.803439837365858 56.977278038053178 50.958294623043386 17.740206200161527 53.393609032580919 81.494049816868738 18.362036225892304 43.141133619452901 43.143498438651775 56.505429966054884 66.737505036339940 77.809836752132298 33.183991818685563 32.200468384894364 6.976383322126567 32.200469128908210 92.978952230554015 41.519068149379322 54.844385026842481 26.368399734601240 44.938972970901446 38.113050886050885 61.291754585284913 21.591227642378826 69.795767025364228 73.779811184307661 46.415384410654319 88.824970084992529 63.991106795136581 35.691421835332719 43.785236939289881 33.152043769211978 10.548313107179490 68.044957888164859 46.415386184494096 25.824570649881565 55.945171034663765 74.770953256487743 40.060761811824023 60.122817195309771 25.616503459517062 59.969342262821314 90.152348990502446 9.950758663645050 29.535426693431695 68.115395516698257 68.098073178329216 96.580034150337397 68.091366878869451 29.715990057042834 52.919296518642994 23.244067657507024 7.618537494164307 83.991539468516748 15.959183479080114 30.400115103717095 69.906008593345533 38.957233786824020 85.070370901695526 40.917240651179775 35.316797058044401 69.982392729213075 35.288164384981641 94.131529008195528 94.131529446871895 5.824457354273457 5.824457531861934 94.398539300505320 43.702910134577735 5.478919254232638 43.702908918105720 14.845389823705016 69.806220601348684 15.268519666179730 85.250752086522496 74.154578860405152 25.178232554507026 25.210938314232916 71.455151598684623 94.436501974361860 71.337469316801631 5.370258604052949 37.944378985878579 45.822290288139165 79.858492353675672 20.562398938154054 20.753230503221271 79.280119757553052 87.538630653406798 12.367512368206860 14.871235373352373 85.185571219888828 92.203414424961935 19.668603658539137 60.990531584671729 63.124884113901075 39.990220442990797 29.966414768318227 59.953228236439870 54.548354513457262 61.378438279105374 88.828827246153054 61.291586487275701 11.178221070829117 38.339357379734174 47.699053252232098 67.136046830978643 55.951332017481015 55.951333520173755 95.662526938053503 4.294349937366495 74.565305427777460 21.029936427405787 45.875352716593518 12.682496091027453 3.931843521769224 9.510328670776094 90.454118407130380 3.912424096947804 96.044683061793151 9.501444249426470 33.077187045831145 46.292224815357393 45.854782563241756 67.649006691507324 90.215584999341985 42.865113447040187 9.309081578451453 42.865114837460276 25.515288061264755 66.301157374589096 59.587079229106692 66.012077689171718 52.794365713423687 53.082039080820984 80.814216454896425 19.060572671947909 89.747348740043321 65.718810652259577 56.954879641007068 45.563392134011849 22.407799685000452 56.975301021393001 32.536676549581408 67.497231563016385 32.024063933856617 64.102787604597339 16.884852203157390 39.537194723490884 29.415602073313501 39.066756320537522 57.264181564582373 37.860655800565091 70.192056113138207 80.112199672425817 61.807417043976990 31.390160019146066 3.261136066874479 31.390160629175899 96.696368425421724 37.140301346019463 30.316919582954039 52.256298274666619 47.740326554156070 47.740327885406074 3.753624224222672 70.933243351542444 71.633825054286135 14.465102947670793 85.865420773856926 14.419911091154043 73.284291134611138 81.025190994946826 87.269802107941985 22.448011592756131 57.029465912948588 69.480666600827064 23.165393848546561 33.356953272932515 32.982964579871357 80.373158866745101 4.549894663708548 35.796068167045199 95.424538084644695 35.796068970288573 10.432585120248639 89.581667463510101 12.622375742895780 27.804060155996954 95.708023557121010 96.843233770347126 4.254506984466313 27.830350748464614 52.262860230218372 54.465628282082072 24.701170858833272 58.161663954726812 84.364806416652584 18.925736098675305 38.233394668679907 45.965781921380973 72.369232310190114 42.035882936480242 40.531665333661451 29.559666183378216 87.401793578219724 19.064658555544653 81.037430502789903 29.198635470058960 70.645393051294064 75.516804958796925 89.189878514611863 14.694517262363606 55.379833793195935 96.203582055443718 39.898043873417805 3.595165916024016 96.384650064535265 39.898044820319221 73.938142470555405 69.939439993053313 57.257152447549188 59.940992025881926 4.173991598588712 82.874423920704146 16.905190485549234 69.479854089361481 87.820939231939818 3.987946526935477 63.892207159630651 95.953147750771805 63.881689846541690 95.784482639484821 3.800516694040005 82.651692092438665 96.156829350175670 17.319392763921755 76.937189562694343 34.769053927203977 44.519397285350486 49.547056204425608 50.709469258926944 64.174205115878237 49.097187473818444 53.127820325826434 46.818604978327663 79.033021491585529 26.146673064567160 30.202626631406897 64.740947324600313 60.839629944507799 46.342985338221894 47.584078072423111 15.218542546945713 85.621094143932780 54.463699980591464 54.484123953384476 14.490128610755280 49.718802052907890 42.369002962071988 69.741171338489039 10.649660430354370 33.476756643848042 67.119634261846969 39.706917954018095 21.796725144660840 33.600514783981758 10.856683963219758 89.119820458137923 10.640597629603302 77.986226009278468 89.331974957693276 35.665407195330502 84.954366162950208 59.665937032963740 59.317769483208359 14.886783845664395 53.316341439907418 74.345901319195505 55.213677480850627 77.956911451755886 78.475545651428334 62.715882984386738 17.892235928843210 89.957849191376411 77.976781372546114 21.867982031705122 10.722026220160608 25.598569234936797 21.398431013033047 82.091508187338590 66.978690798169907 90.443417981046551 96.027008998467750 36.871053727403130 36.871054159795492 15.107837642855269 81.928916240715381 64.747226901740575 42.726606400170226 64.304271206027437 84.624856865227443 35.937126635364230 18.493021024259541 29.538656576181044 22.196739631096694 70.183568612993639 49.971370929447431 14.821093233536516 35.914268467035477 74.048784850550291 38.849423631110746 84.175056260661563 8.137937776087519 85.219169328196585 10.615628075562524 51.015071658835566 36.198873438450725 91.829527580293657 90.040290085378217 21.725247680100498 16.033727995178154 33.281873934331173 17.030972710934364 18.426439097315736 25.036554329948181 61.610940267595659 90.269864591081614 56.237057488882904 89.172935291964663 56.237059659417355 9.683972414116187 79.451460654569416 74.085559743353755 25.623218825420807 26.098834693782944 72.556152101443587 81.748860045670355 19.776634296357049 19.896420350491340 50.772584708894428 42.958388868620446 44.977337567753558 75.673132230576996 34.963583540053385 81.471700811772109 92.336433173946332 48.533482627535165 51.452441570624266 64.961679740571412 29.910521192002228 39.087026448526416 39.087027123436542 7.947027592437443 92.181342999071333 65.067062047282406 77.911517128948375 18.911694642913989 68.579424391159449 33.281547094106287 26.272145784054356 83.449361208798948 29.616712587658295 26.420384267927112 73.306538350656268 42.909938534232637 30.350680385014442 78.723078362078510 64.986055768463814 13.612842384042501 86.334622131859831 86.693300751274023 5.778848049511204 5.480572655963011 94.475617412261727 94.180338606850185 59.821146989793448 84.467256608924160 77.423962108906466 22.709616294277613 22.374814431237674 76.615276947285821 6.156951256589273 23.248092245237327 93.982240602161525 76.454979663704137 6.327190961088674 23.248092301744133 93.846073726007603 64.268059086490595 86.005953384832537 45.376070692373155 48.876920091495251 70.460334235431958 54.290598098476160 25.184058585438486 3.321989680139081 52.228403798307596 81.193198026072764 72.626677199299721 39.673071681965062 74.361960267256705 3.040685173853792 74.457921260954848 96.942867983854029 32.240802968898755 78.329192769832034 76.107163881260135 21.633343817970250 48.314972796542236 97.312045395224615 97.130682546261156 2.827086501905141 2.956552916045084 35.462300058797553 35.387501957057225 76.510125777324475 3.205498105898501 20.364858817915881 79.161562285818349 3.114356684119147 96.843226459864155 20.295333668452802 59.589559884757016 97.230556763893418 2.726438003323447 59.590106112087078 18.509559105091057 8.786695327352144 91.167640634080200 14.585887810891466 86.119533112711082 47.354300217287950 7.751484355239849 47.354301677694124 45.578671940866755 87.783113381618094 28.076516616307490 41.766237044932716 43.533424036866855 29.310248846036913 26.677869027199137 56.472656014766677 58.232233417010157 53.853832067219138 48.143216602073643 42.166419105601726 60.206757355434924 63.710255293735528 63.803107437286648 8.016770589640986 91.692227406068412 13.879044616567281 86.105160138399498 84.118372345187538 67.466705457429981 15.754679776924874 21.098891889595180 66.407548392164458 18.601599830662963 35.758646959680100 82.981113835278393 63.282038165914521 31.906011380491719 37.003100468882195 13.651244811194793 86.499737112705873 7.795647583531558 92.173808939650414 49.611665714025413 32.479270715183809 74.240846523246162 58.576717011112230 51.405863535615552 6.167794305001739 93.787987829997533 51.405864915623205 21.558653371051840 65.300676851790598 84.617868467788441 50.027412396910485 49.686759143509192 69.380751532607988 30.026013167170486 29.557633395489130 85.062902339042182 93.695691175757005 60.529306889805618 60.529305605740142 6.260047259221999 15.959182756450602 76.930623734108607 
				</DataArray>
			</PointData>
		</Piece>
	</UnstructuredGrid>
</VTKFile>
