<?xml version="1.0"?>
<VTKFile type="UnstructuredGrid" version="0.1" byte_order="LittleEndian">
	<UnstructuredGrid>
		<Piece NumberOfPoints="610" NumberOfCells="1134">
			<Points>
				<DataArray type="Float64" Name="Points" NumberOfComponents="3" format="ascii">
					0.0000000000000000e+00
					0.0000000000000000e+00
					0.0000000000000000e+00
					1.0000000000000000e+00
					0.0000000000000000e+00
					0.0000000000000000e+00
					1.0000000000000000e+00
					1.0000000000000000e+00
					0.0000000000000000e+00
					0.0000000000000000e+00
					1.0000000000000000e+00
					0.0000000000000000e+00
					4.7619047619047568e-02
					0.0000000000000000e+00
					0.0000000000000000e+00
					9.5238095238095136e-02
					0.0000000000000000e+00
					0.0000000000000000e+00
					1.4285714285714271e-01
					0.0000000000000000e+00
					0.0000000000000000e+00
					1.9047619047619019e-01
					0.0000000000000000e+00
					0.0000000000000000e+00
					2.3809523809523789e-01
					0.0000000000000000e+00
					0.0000000000000000e+00
					2.8571428571428559e-01
					0.0000000000000000e+00
					0.0000000000000000e+00
					3.3333333333333331e-01
					0.0000000000000000e+00
					0.0000000000000000e+00
					3.8095238095238099e-01
					0.0000000000000000e+00
					0.0000000000000000e+00
					4.2857142857142849e-01
					0.0000000000000000e+00
					0.0000000000000000e+00
					4.7619047619047589e-01
					0.0000000000000000e+00
					0.0000000000000000e+00
					5.2380952380952328e-01
					0.0000000000000000e+00
					0.0000000000000000e+00
					5.7142857142857084e-01
					0.0000000000000000e+00
					0.0000000000000000e+00
					6.1904761904761818e-01
					0.0000000000000000e+00
					0.0000000000000000e+00
					6.6666666666666563e-01
					0.0000000000000000e+00
					0.0000000000000000e+00
					7.1428571428571308e-01
					0.0000000000000000e+00
					0.0000000000000000e+00
					7.6190476190476042e-01
					0.0000000000000000e+00
					0.0000000000000000e+00
					8.0952380952380820e-01
					0.0000000000000000e+00
					0.0000000000000000e+00
					8.5714285714285610e-01
					0.0000000000000000e+00
					0.0000000000000000e+00
					9.0476190476190410e-01
					0.0000000000000000e+00
					0.0000000000000000e+00
					9.5238095238095200e-01
					0.0000000000000000e+00
					0.0000000000000000e+00
					1.0000000000000000e+00
					4.7619047619047568e-02
					0.0000000000000000e+00
					1.0000000000000000e+00
					9.5238095238095136e-02
					0.0000000000000000e+00
					1.0000000000000000e+00
					1.4285714285714271e-01
					0.0000000000000000e+00
					1.0000000000000000e+00
					1.9047619047619019e-01
					0.0000000000000000e+00
					1.0000000000000000e+00
					2.3809523809523789e-01
					0.0000000000000000e+00
					1.0000000000000000e+00
					2.8571428571428559e-01
					0.0000000000000000e+00
					1.0000000000000000e+00
					3.3333333333333331e-01
					0.0000000000000000e+00
					1.0000000000000000e+00
					3.8095238095238099e-01
					0.0000000000000000e+00
					1.0000000000000000e+00
					4.2857142857142849e-01
					0.0000000000000000e+00
					1.0000000000000000e+00
					4.7619047619047589e-01
					0.0000000000000000e+00
					1.0000000000000000e+00
					5.2380952380952328e-01
					0.0000000000000000e+00
					1.0000000000000000e+00
					5.7142857142857084e-01
					0.0000000000000000e+00
					1.0000000000000000e+00
					6.1904761904761818e-01
					0.0000000000000000e+00
					1.0000000000000000e+00
					6.6666666666666563e-01
					0.0000000000000000e+00
					1.0000000000000000e+00
					7.1428571428571308e-01
					0.0000000000000000e+00
					1.0000000000000000e+00
					7.6190476190476042e-01
					0.0000000000000000e+00
					1.0000000000000000e+00
					8.0952380952380820e-01
					0.0000000000000000e+00
					1.0000000000000000e+00
					8.5714285714285610e-01
					0.0000000000000000e+00
					1.0000000000000000e+00
					9.0476190476190410e-01
					0.0000000000000000e+00
					1.0000000000000000e+00
					9.5238095238095200e-01
					0.0000000000000000e+00
					9.5238095238095244e-01
					1.0000000000000000e+00
					0.0000000000000000e+00
					9.0476190476190488e-01
					1.0000000000000000e+00
					0.0000000000000000e+00
					8.5714285714285732e-01
					1.0000000000000000e+00
					0.0000000000000000e+00
					8.0952380952380976e-01
					1.0000000000000000e+00
					0.0000000000000000e+00
					7.6190476190476208e-01
					1.0000000000000000e+00
					0.0000000000000000e+00
					7.1428571428571441e-01
					1.0000000000000000e+00
					0.0000000000000000e+00
					6.6666666666666674e-01
					1.0000000000000000e+00
					0.0000000000000000e+00
					6.1904761904761896e-01
					1.0000000000000000e+00
					0.0000000000000000e+00
					5.7142857142857151e-01
					1.0000000000000000e+00
					0.0000000000000000e+00
					5.2380952380952417e-01
					1.0000000000000000e+00
					0.0000000000000000e+00
					4.7619047619047672e-01
					1.0000000000000000e+00
					0.0000000000000000e+00
					4.2857142857142921e-01
					1.0000000000000000e+00
					0.0000000000000000e+00
					3.8095238095238182e-01
					1.0000000000000000e+00
					0.0000000000000000e+00
					3.3333333333333443e-01
					1.0000000000000000e+00
					0.0000000000000000e+00
					2.8571428571428692e-01
					1.0000000000000000e+00
					0.0000000000000000e+00
					2.3809523809523961e-01
					1.0000000000000000e+00
					0.0000000000000000e+00
					1.9047619047619180e-01
					1.0000000000000000e+00
					0.0000000000000000e+00
					1.4285714285714390e-01
					1.0000000000000000e+00
					0.0000000000000000e+00
					9.5238095238095899e-02
					1.0000000000000000e+00
					0.0000000000000000e+00
					4.7619047619047998e-02
					1.0000000000000000e+00
					0.0000000000000000e+00
					0.0000000000000000e+00
					9.5238095238095244e-01
					0.0000000000000000e+00
					0.0000000000000000e+00
					9.0476190476190488e-01
					0.0000000000000000e+00
					0.0000000000000000e+00
					8.5714285714285732e-01
					0.0000000000000000e+00
					0.0000000000000000e+00
					8.0952380952380976e-01
					0.0000000000000000e+00
					0.0000000000000000e+00
					7.6190476190476208e-01
					0.0000000000000000e+00
					0.0000000000000000e+00
					7.1428571428571441e-01
					0.0000000000000000e+00
					0.0000000000000000e+00
					6.6666666666666674e-01
					0.0000000000000000e+00
					0.0000000000000000e+00
					6.1904761904761896e-01
					0.0000000000000000e+00
					0.0000000000000000e+00
					5.7142857142857151e-01
					0.0000000000000000e+00
					0.0000000000000000e+00
					5.2380952380952417e-01
					0.0000000000000000e+00
					0.0000000000000000e+00
					4.7619047619047672e-01
					0.0000000000000000e+00
					0.0000000000000000e+00
					4.2857142857142921e-01
					0.0000000000000000e+00
					0.0000000000000000e+00
					3.8095238095238182e-01
					0.0000000000000000e+00
					0.0000000000000000e+00
					3.3333333333333443e-01
					0.0000000000000000e+00
					0.0000000000000000e+00
					2.8571428571428692e-01
					0.0000000000000000e+00
					0.0000000000000000e+00
					2.3809523809523961e-01
					0.0000000000000000e+00
					0.0000000000000000e+00
					1.9047619047619180e-01
					0.0000000000000000e+00
					0.0000000000000000e+00
					1.4285714285714390e-01
					0.0000000000000000e+00
					0.0000000000000000e+00
					9.5238095238095899e-02
					0.0000000000000000e+00
					0.0000000000000000e+00
					4.7619047619047998e-02
					0.0000000000000000e+00
					1.7121594077296470e-01
					1.7185519220377440e-01
					0.0000000000000000e+00
					8.2814480779622568e-01
					1.7121594077296459e-01
					0.0000000000000000e+00
					7.3975307691771541e-01
					8.9265998319655671e-01
					0.0000000000000000e+00
					5.0000000000000011e-01
					7.8128145567169949e-01
					0.0000000000000000e+00
					7.1374711522239020e-01
					2.9730690951693040e-01
					0.0000000000000000e+00
					1.1603110350217040e-01
					5.3514315638795662e-01
					0.0000000000000000e+00
					5.0752797991232546e-01
					2.2271805476363979e-01
					0.0000000000000000e+00
					1.0743778821920701e-01
					7.4165892349191564e-01
					0.0000000000000000e+00
					8.6732907485118205e-01
					5.4840555367942301e-02
					0.0000000000000000e+00
					8.8586873447911296e-01
					3.3953061759697639e-01
					0.0000000000000000e+00
					3.5035354246994038e-01
					2.9200802324675451e-01
					0.0000000000000000e+00
					7.0773842806032206e-01
					3.4958625477112459e-01
					0.0000000000000000e+00
					6.4990094896845330e-01
					7.0793119868017351e-01
					0.0000000000000000e+00
					5.9791847173724622e-01
					4.8388574154595060e-01
					0.0000000000000000e+00
					2.4586751491863079e-01
					4.5493002675328731e-01
					0.0000000000000000e+00
					2.0067412781391869e-01
					3.8109029295514518e-01
					0.0000000000000000e+00
					3.8155272376076349e-01
					7.9855057448933364e-01
					0.0000000000000000e+00
					5.8849413402917961e-01
					1.3135226758653221e-01
					0.0000000000000000e+00
					5.8965057032132939e-01
					8.6874676673406448e-01
					0.0000000000000000e+00
					8.6886151145987922e-01
					5.8870090774702144e-01
					0.0000000000000000e+00
					2.5665791092953782e-01
					7.4428775187181784e-01
					0.0000000000000000e+00
					9.0192362596586884e-01
					9.0042933462159391e-01
					0.0000000000000000e+00
					6.1644297023779704e-01
					7.4947919451971923e-01
					0.0000000000000000e+00
					8.9259472366371440e-01
					7.4160841715338444e-01
					0.0000000000000000e+00
					4.3386237347426038e-01
					6.4421980411462942e-01
					0.0000000000000000e+00
					1.7185519220377429e-01
					8.2878405922703546e-01
					0.0000000000000000e+00
					8.8806386212184463e-01
					5.3557631125642380e-01
					0.0000000000000000e+00
					2.8565834772534759e-01
					7.0773298767672088e-01
					0.0000000000000000e+00
					7.3681161187864164e-02
					3.2749282988472689e-01
					0.0000000000000000e+00
					3.2834786435968077e-01
					9.2683140123352403e-01
					0.0000000000000000e+00
					3.2761131176876968e-01
					7.2563565327608603e-02
					0.0000000000000000e+00
					8.9205426997408910e-01
					1.4890246986487021e-01
[...]
			<PointData>
				<DataArray type="Float64" Name="temperature" format="ascii">
					100 0 0 100 95 90 86 81 76 71 67 62 57 52 48 43 38 33 29 24 19 14 10 5 0 -0 0 0 0 0 0 0 0 0 -0 0 0 0 0 0 0 0 0 0 5 10 14 19 24 29 33 38 43 48 52 57 62 67 71 76 81 86 90 95 100 100 100 100 100 100 100 100 100 100 100 100 100 100 100 100 100 100 100 100 83 17 26 50 29 88 49 89 13 11 65 29 35 40 75 80 62 41 41 13 74 10 38 11 57 83 11 71 93 67 67 11 7 82 57 57 51 18 53 82 18 43 43 57 67 78 33 32 7 32 93 42 55 26 45 38 61 22 70 74 46 89 64 36 44 33 11 68 46 26 56 75 40 60 26 60 90 10 30 68 68 97 68 30 53 23 8 84 16 30 70 39 85 41 35 70 35 94 94 6 6 94 44 5 44 15 70 15 85 74 25 25 71 94 71 5 38 46 80 21 21 79 88 12 15 85 92 20 61 63 40 30 60 55 61 89 61 11 38 48 67 56 56 96 4 75 21 46 13 4 10 90 4 96 10 33 46 46 68 90 43 9 43 26 66 60 66 53 53 81 19 90 66 57 46 22 57 33 68 32 64 17 40 29 39 57 38 70 80 62 31 3 31 97 37 30 52 48 48 4 71 72 14 86 14 73 81 87 22 57 70 23 33 33 80 5 36 95 36 10 90 13 28 96 97 4 28 52 54 25 58 84 19 38 46 72 42 41 30 87 19 81 29 71 76 89 15 55 96 40 4 96 40 74 70 57 60 4 83 17 70 88 4 64 96 64 96 4 83 96 17 77 35 45 50 51 64 49 53 47 79 26 30 65 61 46 48 15 86 54 55 14 50 42 70 11 33 67 40 22 34 11 89 11 78 89 36 85 60 59 15 53 74 55 78 79 63 18 90 78 22 11 26 21 82 67 90 96 37 37 15 82 65 43 64 85 36 19 30 22 70 50 15 36 74 39 84 8 85 11 51 36 92 90 22 16 33 17 18 25 62 90 56 89 56 10 79 74 26 26 73 82 20 20 51 43 45 76 35 82 92 49 51 65 30 39 39 8 92 65 78 19 69 33 26 83 30 26 73 43 30 79 65 14 86 87 6 5 95 94 60 85 77 23 22 77 6 23 94 76 6 23 94 64 86 45 49 70 54 25 3 52 81 73 40 74 3 74 97 32 78 76 22 48 97 97 3 3 35 35 77 3 20 79 3 97 20 60 97 3 60 19 9 91 15 86 47 8 47 46 88 28 42 44 29 27 57 58 54 48 42 60 64 64 8 92 14 86 84 68 16 21 66 19 36 83 63 32 37 14 87 8 92 50 32 74 59 51 6 94 51 22 65 85 50 50 69 30 30 85 94 61 61 6 16 77 
				</DataArray>
			</PointData>
		</Piece>
	</UnstructuredGrid>
</VTKFile>
