<VTKFile type="UnstructuredGrid" version="1.0" byte_order="LittleEndian" header_type="UInt64">
	<UnstructuredGrid>
		<FieldData>
			<DataArray type="Float64" Name="TimeValue" NumberOfTuples="1" format="ascii"> 0.4100000000000002 </DataArray>
		</FieldData>
		<Piece NumberOfPoints="610" NumberOfCells="1134">
			<PointData>
				<DataArray type="Float64" Name="pressure" format="ascii">
					10604.888076845532851 0.000000000000000 0.000000000000000 11331.376913044783578 0.000000899525922 -0.000000737103234 -0.000000079246614 -0.000000314895361 -0.000000289679141 -0.000000105063213 -0.000000350264100 -0.000000214209909 -0.000000193328846 -0.000000006033597 -0.000000749101602 -0.000000087374716 -0.000000234702945 -0.000000224123922 -0.000000259044967 -0.000000053484710 -0.000000266012902 -0.000000104000304 -0.000000739347177 -0.000000145658396 0.000000000000000 0.000000000000000 0.000000000000000 0.000000000000000 0.000000000000000 0.000000000000000 0.000000000000000 0.000000000000000 0.000000000000000 0.000000000000000 0.000000000000000 0.000000000000000 0.000000000000000 0.000000000000000 0.000000000000000 0.000000000000000 0.000000000000000 0.000000000000000 0.000000000000000 0.000000000000000 0.000000153671884 0.000000737059801 0.000000077982548 0.000000249671302 0.000000056454968 0.000000256288305 0.000000224123922 0.000000234702945 0.000000087374716 0.000000749101602 0.000000006033597 0.000000193385587 0.000000213938162 0.000000347543357 0.000000093820300 0.000000304631905 0.000000354781682 0.000000095635461 0.000000739027512 0.000000790196687 4978.255662247644068 15257.137006892540739 4486.995182859774104 8671.641370825114791 4474.600905976277318 7984.246046589502839 7462.713635845992030 7410.878230527926462 4694.623888667794745 15974.392101082465160 3986.409668943378165 8333.416008123551364 8467.498718803899465 8123.484413382187086 5587.313320279406071 9783.249405810413009 8228.803601254803652 4799.071945231228710 15326.012947126691870 5065.110277444332496 0.000000072832341 0.000000027766556 -0.000000034595416 -0.000000076301519 0.000000074923237 -0.000000068315353 0.000000004667791 0.000000102592515 -0.000000085285650 -0.000000024922225 -0.000000133282669 -0.000000003870509 0.000000138853084 0.000000051141837 -0.000000040879283 -0.000000075656396 0.000000005619950 -0.000000084581869 0.000000078874362 -0.000000030920834 0.000000071277074 0.000000067871403 -0.000000063213760 0.000000106076251 0.000000128646132 -0.000000027154985 -0.000000051459934 -0.000000083415614 0.000000070096687 0.000000077747424 -0.000000082704787 -0.000000028932888 -0.000000126928137 -0.000000098134460 0.000000194579504 0.000000172852877 -0.000000055729079 0.000000016171636 -0.000000114834240 -0.000000106747279 0.000000029853211 -0.000000096330844 0.000000119082150 0.000000026691290 -0.000000107433699 0.000000059012229 0.000000090912246 -0.000000013147914 -0.000000106286167 0.000000015758607 -0.000000107501226 0.000000190679201 -0.000000076540352 0.000000111524304 0.000000070854832 0.000000186544449 0.000000097541310 0.000000027604676 0.000000036385020 -0.000000029237967 0.000000153153541 0.000000091342499 -0.000000049089509 -0.000000073613669 -0.000000092298777 0.000000040484456 0.000000150829238 -0.000000018889164 -0.000000145466011 0.000000043699015 0.000000120288004 -0.000000041171906 -0.000000098235911 0.000000067970471 0.000000041836715 -0.000000097812135 -0.000000068048615 0.000000005353429 0.000000027945372 0.000000138823382 -0.000000120156360 0.000009488863611 0.000000124547858 -0.000000034014390 0.000000181415945 -0.000000162044496 -0.000000053305229 -0.000000018023109 -0.000000021828625 -0.000000087326808 0.000000059859174 0.000000153519124 -0.000000099688948 0.000000078669522 0.000000120038162 -0.000000116628005 -0.000000094223911 0.000000409724245 0.000000378075175 -0.000000081085871 0.000000052673210 0.000001190887488 0.000000012098096 0.000000125436031 -0.000000012098096 -0.000000024082883 0.000000118688524 0.000000129633259 0.000000220759140 0.000000095085192 0.000000052052313 -0.000000047811577 -0.000000077070187 0.000000515510717 0.000000076493980 0.000000078347480 0.000000076644194 -0.000000019962560 -0.000000106584981 0.000000128874583 -0.000000136730299 0.000000131941397 0.000000026478996 -0.000000029724546 -0.000000085720650 0.000000086055102 -0.000000063096373 0.000000032085235 0.000000065665296 -0.000000024656804 -0.000000056986664 -0.000000078048474 0.000000049952580 0.000000076008830 0.000000061204711 0.000000061121271 -0.000000061457872 0.000000093703269 -0.000000097387095 -0.000000043019489 0.000000072007144 0.000000065302388 -0.000000065289820 0.000003650175770 0.000000071841361 -0.000000084388670 -0.000000048963560 -0.000000007288193 0.000000107172964 -0.000000111509650 0.000000101882451 0.000000092172725 0.000000118999966 0.000011068609139 -0.000000091103394 -0.000000120673201 -0.000000063310755 0.000000010679360 -0.000000129579572 -0.000000064202368 -0.000000041854135 0.000000153359691 -0.000000166947497 0.000000063245631 0.000000164912324 -0.000000129507993 0.000000110746332 -0.000000093265141 -0.000000050165940 -0.000000094190160 -0.000000027917819 -0.000000186088899 -0.000000117015193 0.000000175967761 -0.000000189039401 0.000000185059819 -0.000000037213864 -0.000000074842815 0.000000058617756 0.000000138805804 0.000000131504041 -0.000000119119288 -0.000000324067460 0.000000127093426 -0.000000189289665 -0.000000111957478 -0.000000082934036 -0.000000008973771 -0.000000149912295 -0.000000153861862 -0.000000197814587 -0.000000127762784 0.000000196648757 0.000010465354203 0.000000107583394 0.000000004871865 -0.000000152538540 -0.000000117927810 0.000000117927810 -0.000000066085390 0.000000117814964 -0.000000201114783 0.000000005205408 0.000000004718407 -0.000000001439586 -0.000000002682845 -0.000000041572696 -0.000000107895414 -0.000000083497993 -0.000000051247183 -0.000000029688215 -0.000000116702017 0.000000047507600 -0.000000044523708 0.000000025555485 -0.000000093715405 -0.000000094510966 0.000002893496846 0.000000107885695 -0.000000033358212 -0.000000033498161 0.000000095287342 0.000000018550280 0.000004790762793 0.000009388387668 0.000000026839839 -0.000000018430630 -0.000000126906834 0.000000089523851 0.000000013547850 -0.000000129139338 0.000000159288212 0.000000044027089 -0.000000068942971 -0.000000141420291 -0.000000001681698 0.000000113872464 0.000000046879899 -0.000000030025007 -0.000000070982217 0.000000128993755 -0.000000144478743 -0.000000115321741 0.000000024232304 -0.000000074459939 0.000000026983004 0.000000098425108 0.000000036732051 0.000012878947915 0.000000195007752 0.000000000000000 0.000007532239584 -0.000000195007752 0.000000048580911 0.000000007818055 -0.000000137278610 0.000000046111864 0.000000105120912 -0.000000072535955 0.000000043995729 -0.000000053109868 0.000000076885705 0.000000106581170 0.000000046819039 0.000005133482793 -0.000000047184915 0.000004202060202 -0.000000134934381 0.000000079131754 0.000006563913663 -0.000000058062968 0.000000056758105 0.000000089368442 0.000000088056244 -0.000000122477423 0.000000062632435 0.000000029732404 0.000000059589472 0.000000062872997 -0.000000051079665 0.000000064447122 0.000000034551714 0.000000092459937 0.000000155279810 0.000000119821265 0.000000072314178 0.000000088024419 0.000000148013231 -0.000000034282832 0.000000157400505 -0.000000155927735 -0.000000026860065 0.000000116740396 -0.000000008721007 0.000000039221241 -0.000000136781186 -0.000000110908246 -0.000000132739184 -0.000000137384463 0.000000018653202 -0.000000078864359 -0.000000092086306 -0.000000104084911 0.000000193755291 -0.000000017077033 -0.000000190440580 -0.000000096331321 0.000000120066791 -0.000000074544103 0.000000096026405 0.000000138270040 -0.000000025256421 0.000000077393379 0.000000130270532 0.000000107324977 -0.000000061079172 0.000000165824879 0.000000126291340 0.000000173492780 0.000000033007236 -0.000000022369932 -0.000000174706854 -0.000000060661956 0.000000205567552 0.000000070917012 0.000000143413219 -0.000000101990500 0.000010985659782 0.000000171890038 -0.000000173392201 -0.000000025958336 0.000000071362877 0.000000046277405 0.000000015121785 -0.000000015721134 -0.000000153503430 0.000000091167624 -0.000000081174363 0.000000086499545 -0.000000106343133 -0.000000069415653 0.000000037871685 -0.000000102191169 0.000000136724567 -0.000000102951197 -0.000000104042935 -0.000000260972147 0.000000050780761 -0.000000136873594 -0.000000109589115 0.000000054926036 -0.000000142341789 -0.000000072533367 -0.000000017929376 -0.000000186646223 -0.000000083354606 -0.000000024952842 -0.000000076290047 0.000000077791579 -0.000000078811455 -0.000000041503577 -0.000000073622764 -0.000000072133030 0.000000137566156 0.000000070392411 -0.000000080624300 -0.000000081810748 -0.000000075906308 -0.000000073257562 -0.000000022002489 -0.000000048841205 -0.000000046496340 0.000000086238880 -0.000000081865251 0.000000019389474 -0.000000147567113 -0.000000092657265 0.000000128643316 -0.000000107132556 -0.000000079300670 0.000000053011741 0.000000059312858 0.000000079740523 0.000000094463459 0.000000107734227 -0.000000040400042 0.000000042386905 -0.000000028663166 0.000000075599009 0.000000115093447 -0.000000129156056 0.000000200981466 0.000000112127417 0.000000079649889 0.000000141030347 -0.000000026869932 0.000000036124131 0.000000152753769 0.000000149254739 0.000000004930538 -0.000000084116375 -0.000000055760493 -0.000000064668361 -0.000000027853067 0.000000029639208 0.000000127381987 -0.000000095946215 0.000000169595142 0.000001184633662 0.000000875135160 -0.000000034639929 0.000000058741921 -0.000000069023002 0.000000065806755 -0.000000065275023 -0.000000136121431 0.000000086570743 -0.000000110860586 0.000000003013108 0.000000143228337 0.000000005055714 -0.000000092737919 0.000000458357347 -0.000000099580711 -0.000000100780147 0.000000072256648 0.000000067196636 0.000000101613497 0.000000071699413 -0.000000023410428 -0.000000181369080 0.000000120427024 -0.000000001619427 -0.000000142690070 0.000000152659593 0.000000228648674 0.000000000000000 -0.000000230810409 0.000013782950015 -0.000000011516910 0.000000055783814 -0.000000057078239 0.000000188896121 -0.000000114887045 0.000020579007905 0.000019269636938 0.000000329025061 0.000000000000000 -0.000000126876646 0.000000116545356 -0.000000122872322 0.000000140992725 -0.000000080013994 -0.000000071824158 -0.000000169445311 0.000009910816022 0.000000092865296 -0.000000243655278 0.000015237272650 0.000000000000000 0.000000243413208 -0.000000028908234 0.000000191944557 -0.000000194328046 -0.000000164108953 0.000000317057428 0.000000137642152 -0.000000064420304 -0.000000137011134 -0.000000166855947 0.000000164976928 0.000000229160881 0.000000079179979 -0.000000193030375 0.000000193429028 -0.000000035514382 0.000000202749713 -0.000000086916202 -0.000000132672658 0.000000130683938 -0.000000127821132 0.000000116501118 0.000000074248230 -0.000000060901726 0.000000212390278 0.000000159872095 0.000000339135576 -0.000000329179778 0.000000204889634 0.000000005846531 -0.000000192050036 0.000000288326036 0.000000205731490 -0.000000164187997 0.000000048054954 -0.000000043103224 -0.000000261871498 -0.000000010714338 0.000000016173096 -0.000000229767792 -0.000000135929481 -0.000000006055353 -0.000000004742703 -0.000000208467309 -0.000000209811791 -0.000000175885009 0.000000121217166 0.000000009673046 -0.000000100177354 0.000000534001223 -0.000000009671645 0.000000068952192 -0.000000093452920 -0.000000012400562 0.000000055880768 -0.000000060846030 0.000000082461950 -0.000000064222535 0.000000126215211 -0.000000061573833 0.000000139150434 0.000000005533448 -0.000000002839356 0.000000128417674 0.000000019372782 -0.000000074924923 
				</DataArray>
				<DataArray type="Float64" Name="u" format="ascii">
					-0.000000000000002 0.000000000000001 0.000000000000001 -0.000000000000001 -0.000000003236424 -0.000000000188694 0.000000000812810 0.000000001099751 0.000000001184160 0.000000001182145 0.000000001151457 0.000000001101709 0.000000001041390 0.000000000972311 0.000000000898868 0.000000000819095 0.000000000736122 0.000000000649440 0.000000000560266 0.000000000469170 0.000000000376987 0.000000000283528 0.000000000189398 0.000000000094751 0.000000000000000 0.000000000000000 0.000000000000002 0.000000000000000 -0.000000000000001 0.000000000000001 0.000000000000000 -0.000000000000000 -0.000000000000001 0.000000000000003 -0.000000000000003 0.000000000000004 0.000000000000000 -0.000000000000002 0.000000000000001 0.000000000000000 -0.000000000000002 0.000000000000001 0.000000000000003 -0.000000000000001 0.000000000075910 0.000000000151866 0.000000000228026 0.000000000304472 0.000000000381604 0.000000000459370 0.000000000538584 0.000000000619784 0.000000000704726 0.000000000793398 0.000000000890524 0.000000000995251 0.000000001118261 0.000000001265603 0.000000001465366 0.000000001725232 0.000000002156494 0.000000002997156 0.000000004632437 0.000000008560777 -0.000000000000000 0.000000000000000 -0.000000000000004 0.000000000000001 0.000000000000004 -0.000000000000007 0.000000000000001 -0.000000000000000 -0.000000000000000 0.000000000000000 -0.000000000000000 0.000000000000002 0.000000000000001 -0.000000000000000 0.000000000000002 0.000000000000001 -0.000000000000001 0.000000000000000 -0.000000000000000 0.000000000000001 0.000000001475270 0.000000000354724 0.000000000411266 0.000000000731021 0.000000000616776 0.000000001370304 0.000000001062879 0.000000000390534 0.000000000264822 0.000000000241389 0.000000001564982 0.000000000629207 0.000000000554175 0.000000000813054 0.000000001807664 0.000000002250638 0.000000000838983 0.000000000827613 0.000000000639363 0.000000000235935 0.000000000813924 0.000000000155470 0.000000000588425 0.000000000173128 0.000000000888658 0.000000000920066 0.000000000211679 0.000000000863705 0.000000001750785 0.000000001157512 0.000000001202369 0.000000000221097 0.000000000153396 0.000000002272419 0.000000001178782 0.000000000820733 0.000000000993118 0.000000000364522 0.000000000957032 0.000000001399039 0.000000000337086 0.000000000898799 0.000000000653557 0.000000001224133 0.000000000845529 0.000000002104381 0.000000000703171 0.000000000636101 0.000000000116542 0.000000000514445 0.000000000517456 0.000000000807951 0.000000001238910 0.000000000539299 0.000000000676443 0.000000000832820 0.000000001048724 0.000000000363262 0.000000001464863 0.000000001119706 0.000000000916680 0.000000002815113 0.000000000916619 0.000000000594381 0.000000000700490 0.000000000579948 0.000000000207459 0.000000001173045 0.000000000730330 0.000000000519207 0.000000001307803 0.000000001943591 0.000000000869452 0.000000000815723 0.000000000454943 0.000000001190296 0.000000001572142 0.000000000200772 0.000000000459630 0.000000001070243 0.000000001275540 -0.000000000131356 0.000000001178573 0.000000000470804 0.000000001159171 0.000000000467244 0.000000000157898 0.000000000663992 0.000000000253821 0.000000000512531 0.000000001785717 0.000000000841318 0.000000001428296 0.000000000697698 0.000000000770217 0.000000001670558 0.000000000702140 0.000000004103875 0.000000000412384 0.000000000092676 0.000000000116667 0.000000001210926 0.000000000710742 0.000000000101275 0.000000000842692 0.000000000315634 0.000000001348183 0.000000000250931 0.000000000719763 0.000000001804268 0.000000000536479 0.000000000400610 0.000000001329063 0.000000004187691 0.000000001226331 0.000000000113672 0.000000000800364 0.000000001004504 0.000000001746859 0.000000000323988 0.000000000433436 0.000000000832525 0.000000001114587 0.000000000195502 0.000000000302173 0.000000001035471 0.000000001152481 0.000000000413352 0.000000001297640 0.000000001340460 0.000000000627041 0.000000000636268 0.000000001417165 0.000000001064096 0.000000001168227 0.000000002971003 0.000000000962037 0.000000000233629 0.000000000586431 0.000000001013328 0.000000001651646 0.000000001034703 0.000000000951466 0.000000004365717 0.000000000087187 0.000000000939402 0.000000000369459 0.000000000884334 0.000000000263225 0.000000000079364 0.000000000151538 0.000000002317673 0.000000000062092 0.000000001163320 0.000000000189598 0.000000000687799 0.000000000688277 0.000000001028378 0.000000000905269 0.000000001490875 0.000000000842173 0.000000000170378 0.000000000682447 0.000000000547493 0.000000001549141 0.000000001356821 0.000000001237893 0.000000001110535 0.000000000770507 0.000000001931446 0.000000000381393 0.000000002739325 0.000000001019761 0.000000000810484 0.000000000927145 0.000000000408149 0.000000001177563 0.000000000530343 0.000000001684828 0.000000000694826 0.000000000834180 0.000000000299059 0.000000000816072 0.000000000515122 0.000000000857724 0.000000000966064 0.000000000728156 0.000000000874200 0.000000002188194 0.000000001136491 0.000000000615516 0.000000000054323 0.000000000504956 0.000000000231381 0.000000000649915 0.000000000635374 0.000000000817115 0.000000000907174 0.000000000788409 0.000000000071730 0.000000001797491 0.000000001616532 0.000000000233620 0.000000000587180 0.000000000305517 0.000000001377426 0.000000001361130 0.000000000854177 0.000000000463907 0.000000001249002 0.000000001589597 0.000000000496248 0.000000000669070 0.000000000519211 0.000000001220785 0.000000000078295 0.000000000698487 0.000000000787064 0.000000000577587 0.000000000178381 0.000000001014414 0.000000000199893 0.000000000549200 0.000000000159433 -0.000000001273835 0.000000000069389 0.000000000445323 0.000000001121166 0.000000001257115 0.000000000401938 0.000000001062772 0.000000001454551 0.000000000298881 0.000000000803230 0.000000000770340 0.000000001184294 0.000000000635305 0.000000000744027 0.000000000462900 0.000000001618236 0.000000000387232 0.000000001081905 0.000000000621764 0.000000000834061 0.000000001967761 0.000000000965530 0.000000000232788 0.000000000823913 0.000000000672819 0.000000000771845 0.000000000064189 0.000000003812866 0.000000000648302 0.000000001511633 0.000000001326387 0.000000000801249 0.000000001432279 0.000000000066141 0.000000002039406 0.000000000336383 0.000000001104982 0.000000002403482 0.000000000083782 0.000000001137338 0.000000003709904 0.000000001143685 -0.000000001018325 0.000000000078500 0.000000001304300 0.000000002687993 0.000000000276351 0.000000001278554 0.000000000745048 0.000000000903350 0.000000000863196 0.000000001130115 0.000000001130590 0.000000000723643 0.000000001216993 0.000000000715687 0.000000001246994 0.000000000516801 0.000000000610373 0.000000001054121 0.000000000956486 0.000000000706677 0.000000000994683 0.000000000286363 0.000000002338094 0.000000001090354 0.000000000820229 0.000000000292650 0.000000000929491 0.000000000906787 0.000000001272374 0.000000000225894 0.000000000521693 0.000000001493368 0.000000000647168 0.000000000345055 0.000000000639831 0.000000000179062 0.000000000569503 0.000000000222831 0.000000001348787 0.000000000514947 0.000000000769294 0.000000002608091 0.000000000878943 0.000000001184033 0.000000000309344 0.000000000887982 0.000000001972782 0.000000001243139 0.000000001442147 0.000000002080579 0.000000001502854 0.000000000298433 0.000000002310934 0.000000001223538 0.000000000440479 0.000000000170795 0.000000000434389 0.000000000402480 0.000000002282782 0.000000000892228 0.000000001903435 0.000000000376672 0.000000000738209 0.000000000580460 0.000000000260642 0.000000001412532 0.000000001298510 0.000000000946980 0.000000001482733 0.000000002460682 0.000000000735130 0.000000000370526 0.000000000472673 0.000000000432921 0.000000001743599 0.000000001006449 0.000000000289360 0.000000000657416 0.000000001316482 0.000000000854251 0.000000001428186 0.000000000129015 0.000000001167421 0.000000000224295 0.000000000807204 0.000000000562057 0.000000001303471 0.000000000842957 0.000000000459572 0.000000000339704 0.000000000693353 0.000000000268539 0.000000000292962 0.000000000530741 0.000000001405915 0.000000003124813 0.000000001073353 0.000000001700276 0.000000000901752 0.000000000197328 0.000000002063864 0.000000000853200 0.000000000401363 0.000000000546605 0.000000001546044 0.000000000725195 0.000000000420791 0.000000000320773 0.000000001130757 0.000000000903489 0.000000000808663 0.000000001109099 0.000000000761021 0.000000001407939 0.000000001090470 0.000000001095366 0.000000000767731 0.000000000950983 0.000000000580056 0.000000000767242 0.000000000625389 0.000000000140962 0.000000002268733 0.000000001603798 0.000000001641650 0.000000000403293 0.000000001440810 0.000000000515682 0.000000000536699 0.000000002325270 0.000000000592241 0.000000000413759 0.000000000944896 0.000000000953359 0.000000000555003 0.000000000939554 0.000000001248089 0.000000000216758 0.000000001611098 0.000000001843093 0.000000000117946 0.000000000086803 0.000000000584911 0.000000000904837 0.000000000858358 0.000000002055019 0.000000000974289 0.000000000466178 0.000000000351744 0.000000001452696 0.000000000098756 0.000000000461596 0.000000003057590 0.000000001297040 0.000000000132953 0.000000000371041 -0.000000000107992 0.000000000859849 0.000000001462571 0.000000000993647 0.000000001107854 0.000000000999723 0.000000000771998 0.000000000472181 0.000000000070269 0.000000001200483 0.000000001542262 0.000000001882149 0.000000000609737 0.000000001222493 0.000000000064087 0.000000001539122 0.000000002884428 0.000000000695654 0.000000000769670 0.000000001710721 0.000000000343211 0.000000000763359 0.000000000432035 0.000000002778550 0.000000000056459 0.000000000047098 0.000000000701115 0.000000000563594 0.000000000823093 0.000000000066891 0.000000000325348 0.000000001810793 0.000000000049632 0.000000004130388 0.000000000402671 0.000000001044712 0.000000004186739 0.000000000056487 0.000000001079488 0.000000000355057 0.000000000139027 0.000000000755531 0.000000000293170 0.000000001222495 0.000000000914375 0.000000000147819 0.000000000765168 0.000000000973354 0.000000001657402 0.000000000462319 0.000000000638613 0.000000000673579 0.000000000608616 0.000000000558155 0.000000001307573 0.000000001332345 0.000000001111478 0.000000000716386 0.000000000910997 0.000000001308287 0.000000001065630 0.000000001168832 0.000000000168538 0.000000003018878 0.000000000285446 0.000000000945238 0.000000001306023 0.000000000845893 0.000000000248908 0.000000000346673 0.000000001374576 0.000000000319639 0.000000000550803 0.000000000929838 0.000000001535382 0.000000000687140 0.000000000595159 0.000000000229202 0.000000000884747 0.000000000127136 0.000000000327518 0.000000000815183 0.000000000503712 0.000000001338639 0.000000001367673 0.000000000973600 0.000000000121353 0.000000001466004 0.000000000847938 0.000000000459586 0.000000001435954 0.000000001697097 0.000000000759926 0.000000001004411 0.000000000965260 0.000000000615973 0.000000000463294 0.000000002456614 0.000000003605184 0.000000001028721 0.000000001110192 0.000000000130222 0.000000000335811 0.000000001442957 
				</DataArray>
				<DataArray type="Float64" Name="v" format="ascii">