<VTKFile type="UnstructuredGrid" version="1.0" byte_order="LittleEndian" header_type="UInt64">
	<UnstructuredGrid>
		<FieldData>
			<DataArray type="Float64" Name="TimeValue" NumberOfTuples="1" format="ascii"> 0.01 </DataArray>
		</FieldData>
		<Piece NumberOfPoints="610" NumberOfCells="1134">
			<PointData>
				<DataArray type="Float64" Name="pressure" format="ascii">
					7953.666079014318711 0.000000000000000 0.000000000000000 8498.532708961853132 0.000000574080591 -0.000000552832614 -0.000000075364726 -0.000000290900740 -0.000000258657699 -0.000000099680286 -0.000000318717303 -0.000000197573438 -0.000000178730311 -0.000000005793013 -0.000000561831498 -0.000000083240810 -0.000000211082297 -0.000000204351964 -0.000000235880202 -0.000000051336496 -0.000000248175242 -0.000000097482731 -0.000000554516179 -0.000000140245653 0.000000000000000 0.000000000000000 0.000000000000000 0.000000000000000 0.000000000000000 0.000000000000000 0.000000000000000 0.000000000000000 0.000000000000000 0.000000000000000 0.000000000000000 0.000000000000000 0.000000000000000 0.000000000000000 0.000000000000000 0.000000000000000 0.000000000000000 0.000000000000000 0.000000000000000 0.000000000000000 0.000000147448465 0.000000552800038 0.000000073910981 0.000000235195213 0.000000054322846 0.000000233487593 0.000000204351849 0.000000211082434 0.000000083240793 0.000000561832107 0.000000005793009 0.000000178778235 0.000000197343863 0.000000315914753 0.000000089460271 0.000000271389368 0.000000326915089 0.000000091531499 0.000000554276429 0.000000581581752 4816.773785763952219 11442.852795217519088 4267.019527652042598 8047.423649405659489 4315.474714113131085 7338.062769142426987 6840.720651855943288 6715.566283695835409 4470.334220335117607 11980.794119285070337 3827.412344864007991 7703.871962200440976 7812.878171697776452 7382.873416606865248 5318.577283183582949 8719.743656083932365 7552.106853797895383 4498.303756750940011 11494.509750546005307 4876.881934518386515 0.000000072282796 0.000000027562692 -0.000000033878137 -0.000000074539198 0.000000073536062 -0.000000066713002 0.000000004539037 0.000000100838121 -0.000000083398900 -0.000000024506636 -0.000000131189900 -0.000000003810301 0.000000136823134 0.000000050014420 -0.000000040343205 -0.000000074755518 0.000000005550246 -0.000000083533193 0.000000078095093 -0.000000030575671 0.000000069111151 0.000000067200695 -0.000000062318459 0.000000104173595 0.000000125844123 -0.000000026949039 -0.000000050492970 -0.000000081684585 0.000000068257854 0.000000076061160 -0.000000080950708 -0.000000028621886 -0.000000124236137 -0.000000095032271 0.000000188512861 0.000000167189882 -0.000000053578916 0.000000015688741 -0.000000112383915 -0.000000104639013 0.000000029482933 -0.000000095098798 0.000000116228451 0.000000025929578 -0.000000105507581 0.000000057991395 0.000000089816722 -0.000000012824711 -0.000000104070101 0.000000015373809 -0.000000105219484 0.000000184442849 -0.000000075395060 0.000000109882196 0.000000069676847 0.000000181057145 0.000000096256308 0.000000027049202 0.000000035424508 -0.000000028806659 0.000000150111341 0.000000089961033 -0.000000047937244 -0.000000072887924 -0.000000091346150 0.000000039645294 0.000000144611969 -0.000000018569184 -0.000000142821959 0.000000042412551 0.000000117946055 -0.000000040162936 -0.000000096185693 0.000000066970166 0.000000041034439 -0.000000096362196 -0.000000067374274 0.000000005300341 0.000000027342774 0.000000135463572 -0.000000115984635 0.000008126161997 0.000000120077919 -0.000000032975724 0.000000173196632 -0.000000155190104 -0.000000052434330 -0.000000017716456 -0.000000021486365 -0.000000085261569 0.000000058394105 0.000000148604378 -0.000000098617448 0.000000077109138 0.000000117403457 -0.000000115108675 -0.000000093175934 0.000000386420932 0.000000351415935 -0.000000080027706 0.000000051937700 0.000001098406026 0.000000011850105 0.000000122860599 -0.000000011850120 -0.000000023563436 0.000000116129555 0.000000125807794 0.000000213735065 0.000000093499622 0.000000051271306 -0.000000046898617 -0.000000075765467 0.000000477811825 0.000000075296579 0.000000077121055 0.000000075838580 -0.000000019746106 -0.000000103385315 0.000000125113720 -0.000000132206865 0.000000127183288 0.000000026217370 -0.000000029425954 -0.000000084878871 0.000000085193928 -0.000000061692239 0.000000030949728 0.000000064519259 -0.000000024265912 -0.000000056300578 -0.000000077318149 0.000000049537929 0.000000075455354 0.000000060221812 0.000000060122803 -0.000000060392568 0.000000092204892 -0.000000096254966 -0.000000042182645 0.000000070309639 0.000000064492465 -0.000000064480196 0.000003303925556 0.000000070950317 -0.000000081888295 -0.000000048374486 -0.000000007097153 0.000000105729210 -0.000000107811441 0.000000098509063 0.000000089521217 0.000000115604371 0.000007794691987 -0.000000088503804 -0.000000118437248 -0.000000062226583 0.000000009915590 -0.000000125712421 -0.000000062651472 -0.000000040549908 0.000000148570069 -0.000000160257444 0.000000061438175 0.000000160206856 -0.000000126906826 0.000000108899695 -0.000000091957061 -0.000000048981082 -0.000000092153231 -0.000000027530122 -0.000000180607710 -0.000000114962323 0.000000171255358 -0.000000183282235 0.000000180032071 -0.000000036134750 -0.000000073351252 0.000000057488881 0.000000133603042 0.000000128127073 -0.000000115478628 -0.000000303670000 0.000000122766207 -0.000000182930820 -0.000000109299899 -0.000000080708306 -0.000000008780427 -0.000000146494780 -0.000000150680980 -0.000000190884112 -0.000000123666162 0.000000189814341 0.000008967163211 0.000000104635494 0.000000004768234 -0.000000148107101 -0.000000115773074 0.000000115773046 -0.000000064895003 0.000000113843348 -0.000000194796219 0.000000005018594 0.000000004539818 -0.000000001386254 -0.000000002603482 -0.000000041012693 -0.000000106417485 -0.000000082389600 -0.000000050554123 -0.000000029166156 -0.000000114659808 0.000000046963260 -0.000000043992562 0.000000025213605 -0.000000092398786 -0.000000093142697 0.000002526842972 0.000000105979847 -0.000000033036816 -0.000000033170784 0.000000093069295 0.000000018346156 0.000004253008448 0.000008381246982 0.000000026329374 -0.000000018231980 -0.000000124353859 0.000000088466392 0.000000013419843 -0.000000126232119 0.000000154134584 0.000000043359122 -0.000000067631452 -0.000000137549122 -0.000000001658218 0.000000111710450 0.000000046090298 -0.000000029635612 -0.000000069166844 0.000000126012631 -0.000000140118173 -0.000000112038387 0.000000023603754 -0.000000072479440 0.000000026687361 0.000000097370769 0.000000035340099 0.000009315416072 0.000000187801687 0.000000000000000 0.000006455768789 -0.000000187801687 0.000000048045488 0.000000007638527 -0.000000133836631 0.000000045429172 0.000000103075606 -0.000000071024436 0.000000043198503 -0.000000051902425 0.000000075673605 0.000000104445740 0.000000045880984 0.000004498930508 -0.000000046202330 0.000003705125169 -0.000000131664509 0.000000077214149 0.000005860295284 -0.000000056849375 0.000000055446999 0.000000088098703 0.000000086217111 -0.000000120096117 0.000000061689748 0.000000029031474 0.000000058222516 0.000000061881500 -0.000000050177726 0.000000063187979 0.000000034013003 0.000000091262390 0.000000151663284 0.000000117420962 0.000000070789346 0.000000085965330 0.000000143877195 -0.000000033047487 0.000000151821662 -0.000000149954793 -0.000000025770109 0.000000113743182 -0.000000008515744 0.000000038430761 -0.000000134024408 -0.000000109509487 -0.000000129987103 -0.000000134093384 0.000000018107498 -0.000000076271722 -0.000000090699874 -0.000000102155465 0.000000187698445 -0.000000016543196 -0.000000184594061 -0.000000094588889 0.000000117706129 -0.000000073041686 0.000000092904129 0.000000133749106 -0.000000024573473 0.000000076053318 0.000000125391948 0.000000105393494 -0.000000059309998 0.000000160538690 0.000000123927413 0.000000168806228 0.000000031989905 -0.000000021831902 -0.000000170244809 -0.000000059807832 0.000000198004813 0.000000069619078 0.000000139693786 -0.000000098607996 0.000007764572958 0.000000167601716 -0.000000169159928 -0.000000025462064 0.000000070364977 0.000000045267631 0.000000014953964 -0.000000015447491 -0.000000148278678 0.000000090035163 -0.000000080013523 0.000000085300947 -0.000000104391333 -0.000000068185306 0.000000037434552 -0.000000100344191 0.000000133679245 -0.000000100912039 -0.000000102425058 -0.000000247943534 0.000000050104267 -0.000000134651025 -0.000000107418493 0.000000052653328 -0.000000138815958 -0.000000071405696 -0.000000017794339 -0.000000182280240 -0.000000081519516 -0.000000024614123 -0.000000075682475 0.000000076473375 -0.000000077969653 -0.000000041056152 -0.000000072290919 -0.000000070759732 0.000000133031092 0.000000068974883 -0.000000078989492 -0.000000080761568 -0.000000074958239 -0.000000072347568 -0.000000021762034 -0.000000048118229 -0.000000045239222 0.000000085089441 -0.000000080732730 0.000000018953785 -0.000000144095708 -0.000000090478707 0.000000125492718 -0.000000104796696 -0.000000078005070 0.000000052158552 0.000000058275518 0.000000078611493 0.000000092790582 0.000000105777882 -0.000000039980653 0.000000041950800 -0.000000028001337 0.000000073978965 0.000000112295513 -0.000000125890798 0.000000193373902 0.000000107868343 0.000000078542075 0.000000137299131 -0.000000026048954 0.000000035495246 0.000000148216443 0.000000145181856 0.000000004882706 -0.000000083259031 -0.000000054741303 -0.000000064122718 -0.000000027458954 0.000000029181564 0.000000125036694 -0.000000094464782 0.000000165842162 0.000001043246242 0.000000809295442 -0.000000034307326 0.000000057857136 -0.000000067951624 0.000000064955242 -0.000000064479056 -0.000000134171936 0.000000085492603 -0.000000108200891 0.000000002966013 0.000000140546409 0.000000004961045 -0.000000090884739 0.000000433859874 -0.000000098127299 -0.000000097719513 0.000000071714970 0.000000066202412 0.000000099789647 0.000000070653802 -0.000000023238704 -0.000000174859866 0.000000117347292 -0.000000001585597 -0.000000139641575 0.000000144218921 0.000000220110840 0.000000000000000 -0.000000222123537 0.000011590328693 -0.000000011288462 0.000000054986186 -0.000000055522614 0.000000183338968 -0.000000111397584 0.000015530730109 0.000014708809177 0.000000309646871 0.000000000000025 -0.000000122550578 0.000000113096254 -0.000000120428254 0.000000138238031 -0.000000078145726 -0.000000070612253 -0.000000164935309 0.000008538860588 0.000000090411153 -0.000000235201757 0.000013122916859 -0.000000000000002 0.000000234983999 -0.000000028392495 0.000000185577471 -0.000000187811659 -0.000000158605898 0.000000298144725 0.000000133766579 -0.000000062645202 -0.000000133182719 -0.000000160873344 0.000000160408282 0.000000220222223 0.000000076833031 -0.000000186537027 0.000000187491314 -0.000000034564898 0.000000197501417 -0.000000085062362 -0.000000128695523 0.000000128345395 -0.000000124097749 0.000000113830841 0.000000071564563 -0.000000058731607 0.000000204822153 0.000000153527460 0.000000318316798 -0.000000309146292 0.000000192311890 0.000000005730219 -0.000000180342666 0.000000274197536 0.000000199327487 -0.000000157259023 0.000000046934678 -0.000000042612618 -0.000000249763739 -0.000000010272022 0.000000015618415 -0.000000221570599 -0.000000131923876 -0.000000005858797 -0.000000004588374 -0.000000201755454 -0.000000199953934 -0.000000169840991 0.000000116049816 0.000000009537006 -0.000000098768625 0.000000491359877 -0.000000009535646 0.000000067756397 -0.000000091836581 -0.000000012041338 0.000000055065297 -0.000000059782329 0.000000081532117 -0.000000063645114 0.000000122321378 -0.000000060113837 0.000000136687821 0.000000005444223 -0.000000002792976 0.000000126320288 0.000000019050119 -0.000000073776271 
				</DataArray>
				<DataArray type="Float64" Name="u" format="ascii">
					-0.000000000000001 0.000000000000000 0.000000000000001 -0.000000000000000 -0.000000002249600 0.000000000215148 0.000000000991655 0.000000001182743 0.000000001219733 0.000000001193680 0.000000001147360 0.000000001088604 0.000000001022637 0.000000000950566 0.000000000875358 0.000000000795434 0.000000000713110 0.000000000627982 0.000000000540972 0.000000000452510 0.000000000363235 0.000000000273008 0.000000000182284 0.000000000091180 0.000000000000000 0.000000000000000 0.000000000000002 0.000000000000000 -0.000000000000001 0.000000000000001 0.000000000000000 -0.000000000000000 -0.000000000000001 0.000000000000003 -0.000000000000003 0.000000000000003 0.000000000000000 -0.000000000000002 0.000000000000001 0.000000000000000 -0.000000000000001 0.000000000000001 0.000000000000002 -0.000000000000001 0.000000000063695 0.000000000127395 0.000000000191097 0.000000000254848 0.000000000318776 0.000000000382924 0.000000000447764 0.000000000513602 0.000000000581621 0.000000000651941 0.000000000727711 0.000000000808625 0.000000000902238 0.000000001012944 0.000000001161269 0.000000001353480 0.000000001671473 0.000000002292702 0.000000003507256 0.000000006437265 -0.000000000000001 0.000000000000000 -0.000000000000003 0.000000000000001 0.000000000000004 -0.000000000000006 0.000000000000001 -0.000000000000000 0.000000000000000 0.000000000000000 -0.000000000000000 0.000000000000001 0.000000000000001 -0.000000000000000 0.000000000000001 0.000000000000001 -0.000000000000001 0.000000000000000 -0.000000000000000 0.000000000000001 0.000000001404612 0.000000000338310 0.000000000346573 0.000000000629311 0.000000000580507 0.000000001259796 0.000000001009136 0.000000000339155 0.000000000254653 0.000000000226145 0.000000001471216 0.000000000588852 0.000000000488691 0.000000000749616 0.000000001672222 0.000000002091512 0.000000000716203 0.000000000795126 0.000000000537632 0.000000000213677 0.000000000712058 0.000000000131388 0.000000000512578 0.000000000151440 0.000000000799067 0.000000000787922 0.000000000193491 0.000000000765632 0.000000001648921 0.000000000936651 0.000000001183572 0.000000000211236 0.000000000143893 0.000000002102989 0.000000001127135 0.000000000694968 0.000000000960292 0.000000000337987 0.000000000872315 0.000000001281394 0.000000000306528 0.000000000857937 0.000000000556867 0.000000001132569 0.000000000727834 0.000000001967620 0.000000000667601 0.000000000613322 0.000000000103453 0.000000000429910 0.000000000467465 0.000000000741592 0.000000001169612 0.000000000498958 0.000000000590958 0.000000000777867 0.000000000954400 0.000000000324259 0.000000001350533 0.000000000915897 0.000000000884099 0.000000002650956 0.000000000766695 0.000000000532349 0.000000000625018 0.000000000524025 0.000000000190921 0.000000001070697 0.000000000609341 0.000000000498624 0.000000001224976 0.000000001803913 0.000000000822164 0.000000000711785 0.000000000411551 0.000000001094421 0.000000001496801 0.000000000192589 0.000000000394242 0.000000000970615 0.000000001021531 -0.000000000074028 0.000000001173075 0.000000000395539 0.000000001098964 0.000000000431251 0.000000000150348 0.000000000577385 0.000000000220339 0.000000000459226 0.000000001666645 0.000000000783004 0.000000001381402 0.000000000629298 0.000000000724634 0.000000001548009 0.000000000646340 0.000000003812618 0.000000000339484 0.000000000078005 0.000000000112108 0.000000001110932 0.000000000588217 0.000000000092168 0.000000000816843 0.000000000296934 0.000000001297685 0.000000000221767 0.000000000643955 0.000000001701767 0.000000000507194 0.000000000350350 0.000000001062842 0.000000003976982 0.000000001221907 0.000000000107098 0.000000000761503 0.000000000934047 0.000000001653635 0.000000000279116 0.000000000412197 0.000000000714768 0.000000001068785 0.000000000166566 0.000000000289373 0.000000000862519 0.000000001060458 0.000000000385147 0.000000001236529 0.000000001237067 0.000000000554144 0.000000000592229 0.000000001331651 0.000000000977058 0.000000001133343 0.000000002747609 0.000000000793103 0.000000000217746 0.000000000502577 0.000000000937946 0.000000001536273 0.000000001012345 0.000000000776459 0.000000004035200 0.000000000080730 0.000000000842731 0.000000000333217 0.000000000810938 0.000000000250580 0.000000000076118 0.000000000127294 0.000000001775531 0.000000000052485 0.000000001090936 0.000000000182357 0.000000000655929 0.000000000593627 0.000000000964099 0.000000000807082 0.000000001366732 0.000000000813093 0.000000000154772 0.000000000568568 0.000000000513105 0.000000001462382 0.000000001259060 0.000000001202211 0.000000001059431 0.000000000656516 0.000000001784553 0.000000000351874 0.000000002584808 0.000000000838677 0.000000000713434 0.000000000889048 0.000000000370744 0.000000001085743 0.000000000471476 0.000000001577944 0.000000000652034 0.000000000726110 0.000000000270013 0.000000000780076 0.000000000465098 0.000000000807395 0.000000000876550 0.000000000667419 0.000000000744976 0.000000002054705 0.000000001039941 0.000000000594417 0.000000000048162 0.000000000420777 0.000000000208601 0.000000000587934 0.000000000604571 0.000000000731405 0.000000000882187 0.000000000649136 0.000000000065682 0.000000001671108 0.000000001493810 0.000000000204774 0.000000000518596 0.000000000288468 0.000000001327036 0.000000001315529 0.000000000746351 0.000000000430283 0.000000001185263 0.000000001504445 0.000000000466684 0.000000000643040 0.000000000437085 0.000000001111341 0.000000000070123 0.000000000675288 0.000000000718746 0.000000000480294 0.000000000159585 0.000000000923270 0.000000000171904 0.000000000529510 0.000000000139221 -0.000000001192649 0.000000000060983 0.000000000372237 0.000000001037578 0.000000001172824 0.000000000355458 0.000000000971364 0.000000001336707 0.000000000253351 0.000000000744322 0.000000000694460 0.000000001079259 0.000000000549341 0.000000000678214 0.000000000402505 0.000000001528126 0.000000000370913 0.000000000894067 0.000000000588821 0.000000000724175 0.000000001848122 0.000000000838243 0.000000000196872 0.000000000732878 0.000000000619289 0.000000000747631 0.000000000057999 0.000000003494350 0.000000000537283 0.000000001392456 0.000000001217565 0.000000000688589 0.000000001338833 0.000000000056635 0.000000001583507 0.000000000323758 0.000000000901979 0.000000002243187 0.000000000078309 0.000000001123219 0.000000003396915 0.000000000922895 -0.000000000918094 0.000000000074817 0.000000001350675 0.000000002477468 0.000000000231763 0.000000001167921 0.000000000693556 0.000000000832728 0.000000000783476 0.000000001067464 0.000000001032185 0.000000000631613 0.000000001144275 0.000000000632746 0.000000001282940 0.000000000475625 0.000000000563387 0.000000000956920 0.000000000863363 0.000000000596431 0.000000000949390 0.000000000261511 0.000000002161117 0.000000001048685 0.000000000687348 0.000000000270543 0.000000000850020 0.000000000860920 0.000000001240465 0.000000000212495 0.000000000454896 0.000000001380493 0.000000000578176 0.000000000291081 0.000000000585654 0.000000000158322 0.000000000509770 0.000000000211453 0.000000001318084 0.000000000447095 0.000000000727379 0.000000002415165 0.000000000735511 0.000000001138696 0.000000000287655 0.000000000802951 0.000000001839084 0.000000001154590 0.000000001324617 0.000000001927738 0.000000001399076 0.000000000265431 0.000000002165915 0.000000000991427 0.000000000422787 0.000000000147946 0.000000000389168 0.000000000367587 0.000000002133786 0.000000000754627 0.000000001941337 0.000000000319201 0.000000000709859 0.000000000487403 0.000000000233840 0.000000001124629 0.000000001246134 0.000000000884731 0.000000001374376 0.000000002288988 0.000000000703740 0.000000000356056 0.000000000416500 0.000000000397682 0.000000001639170 0.000000000926613 0.000000000265922 0.000000000598623 0.000000001286210 0.000000000801022 0.000000001304971 0.000000000110869 0.000000001062334 0.000000000211943 0.000000000670107 0.000000000476292 0.000000001226729 0.000000000698160 0.000000000435237 0.000000000317830 0.000000000642460 0.000000000229827 0.000000000246411 0.000000000494860 0.000000001328747 0.000000002888355 0.000000001041940 0.000000001569211 0.000000000743521 0.000000000182809 0.000000001943772 0.000000000730866 0.000000000345828 0.000000000519852 0.000000001470099 0.000000000642899 0.000000000397058 0.000000000281698 0.000000001051194 0.000000000836364 0.000000000735818 0.000000001005801 0.000000000711858 0.000000001398923 0.000000000981725 0.000000001029902 0.000000000678840 0.000000000854746 0.000000000532278 0.000000000740847 0.000000000521072 0.000000000127200 0.000000002077479 0.000000001497869 0.000000001513702 0.000000000378887 0.000000001373699 0.000000000440102 0.000000000513583 0.000000002188902 0.000000000569502 0.000000000352736 0.000000000794582 0.000000000896402 0.000000000504906 0.000000000845355 0.000000001145639 0.000000000182178 0.000000001618686 0.000000001433874 0.000000000112801 0.000000000073779 0.000000000561748 0.000000000803992 0.000000000763394 0.000000001935750 0.000000000817972 0.000000000445472 0.000000000299585 0.000000001154674 0.000000000085963 0.000000000444511 0.000000002849168 0.000000001295560 0.000000000125945 0.000000000310889 -0.000000000115962 0.000000000760037 0.000000001340042 0.000000000939817 0.000000001035464 0.000000000901126 0.000000000671566 0.000000000431085 0.000000000065981 0.000000001124528 0.000000001419693 0.000000001761963 0.000000000517867 0.000000001237132 0.000000000060581 0.000000001216769 0.000000002708456 0.000000000656541 0.000000000671111 0.000000001619613 0.000000000298537 0.000000000681977 0.000000000335367 0.000000002315637 0.000000000054292 0.000000000039584 0.000000000675930 0.000000000471137 0.000000000729781 0.000000000063532 0.000000000272516 0.000000001416436 0.000000000042891 0.000000003805330 0.000000000387823 0.000000000847183 0.000000003868039 0.000000000052556 0.000000001061608 0.000000000325311 0.000000000118438 0.000000000728494 0.000000000281495 0.000000000983765 0.000000000886030 0.000000000135304 0.000000000633391 0.000000000925215 0.000000001515627 0.000000000411154 0.000000000559093 0.000000000595094 0.000000000564191 0.000000000518488 0.000000001230066 0.000000001257062 0.000000001025023 0.000000000610321 0.000000000846562 0.000000001209612 0.000000000867971 0.000000001144238 0.000000000157516 0.000000002788605 0.000000000272489 0.000000000811925 0.000000001256082 0.000000000742127 0.000000000211564 0.000000000307073 0.000000001266661 0.000000000286661 0.000000000475921 0.000000000839315 0.000000001438848 0.000000000641644 0.000000000528690 0.000000000204025 0.000000000800120 0.000000000111777 0.000000000288414 0.000000000734110 0.000000000434984 0.000000001227016 0.000000001273315 0.000000000947361 0.000000000111700 0.000000001353391 0.000000000697292 0.000000000430245 0.000000001363329 0.000000001565155 0.000000000638970 0.000000000964421 0.000000000805387 0.000000000589036 0.000000000392688 0.000000002310461 0.000000003328228 0.000000000837604 0.000000001087656 0.000000000121278 0.000000000318327 0.000000001382230 
				</DataArray>
				<DataArray type="Float64" Name="v" format="ascii">