<VTKFile type="UnstructuredGrid" version="1.0" byte_order="LittleEndian" header_type="UInt64">
	<UnstructuredGrid>
		<FieldData>
			<DataArray type="Float64" Name="TimeValue" NumberOfTuples="1" format="ascii"> 0.060000000000000005 </DataArray>
		</FieldData>
		<Piece NumberOfPoints="610" NumberOfCells="1134">
			<PointData>
				<DataArray type="Float64" Name="pressure" format="ascii">
					10522.037391095995190 0.000000000000000 0.000000000000000 11242.850533564358557 0.000000888813990 -0.000000731344530 -0.000000079244533 -0.000000314856845 -0.000000289562631 -0.000000105059991 -0.000000350187222 -0.000000214181887 -0.000000193305925 -0.000000006033512 -0.000000743249159 -0.000000087372682 -0.000000234626983 -0.000000224078157 -0.000000258989521 -0.000000053484000 -0.000000265992082 -0.000000103993872 -0.000000733570939 -0.000000145656927 0.000000000000000 0.000000000000000 0.000000000000000 0.000000000000000 0.000000000000000 0.000000000000000 0.000000000000000 0.000000000000000 0.000000000000000 0.000000000000000 0.000000000000000 0.000000000000000 0.000000000000000 0.000000000000000 0.000000000000000 0.000000000000000 0.000000000000000 0.000000000000000 0.000000000000000 0.000000000000000 0.000000153669802 0.000000731301436 0.000000077979992 0.000000249659542 0.000000056454363 0.000000256234429 0.000000224078161 0.000000234626979 0.000000087372684 0.000000743249156 0.000000006033513 0.000000193362630 0.000000213910305 0.000000347464259 0.000000093818247 0.000000304501052 0.000000354733429 0.000000095633876 0.000000733253772 0.000000783625982 4978.225060850149021 15137.940628471926175 4486.878119121603959 8670.773564008257381 4474.562956124126686 7983.041953062894208 7461.466231483194861 7409.003431470285250 4694.511988512196695 15849.592167611823243 3986.359155151841151 8332.428515713352681 8466.410851645990988 8121.625711803319973 5587.176977193126731 9779.105769457792121 8227.491287836975971 4798.776199423009530 15206.278475449587859 5065.060167264246047 0.000000072832329 0.000000027766550 -0.000000034595370 -0.000000076301362 0.000000074923164 -0.000000068315212 0.000000004667778 0.000000102592436 -0.000000085285499 -0.000000024922203 -0.000000133282587 -0.000000003870504 0.000000138853014 0.000000051141747 -0.000000040879264 -0.000000075656373 0.000000005619945 -0.000000084581838 0.000000078874345 -0.000000030920824 0.000000071276711 0.000000067871387 -0.000000063213727 0.000000106076156 0.000000128645918 -0.000000027154979 -0.000000051459883 -0.000000083415498 0.000000070096469 0.000000077747300 -0.000000082704663 -0.000000028932878 -0.000000126927942 -0.000000098133890 0.000000194578436 0.000000172851754 -0.000000055728438 0.000000016171556 -0.000000114834059 -0.000000106747150 0.000000029853204 -0.000000096330810 0.000000119081881 0.000000026691186 -0.000000107433604 0.000000059012178 0.000000090912219 -0.000000013147878 -0.000000106286011 0.000000015758564 -0.000000107501059 0.000000190677966 -0.000000076540314 0.000000111524244 0.000000070854779 0.000000186543599 0.000000097541274 0.000000027604637 0.000000036384912 -0.000000029237954 0.000000153153351 0.000000091342446 -0.000000049089408 -0.000000073613651 -0.000000092298754 0.000000040484402 0.000000150827073 -0.000000018889153 -0.000000145465872 0.000000043698821 0.000000120287864 -0.000000041171802 -0.000000098235766 0.000000067970437 0.000000041836666 -0.000000097812083 -0.000000068048599 0.000000005353425 0.000000027945326 0.000000138823050 -0.000000120155401 0.000009485268840 0.000000124546743 -0.000000034014214 0.000000181412316 -0.000000162041942 -0.000000053305190 -0.000000018023098 -0.000000021828615 -0.000000087326614 0.000000059859024 0.000000153518198 -0.000000099688922 0.000000078669427 0.000000120037959 -0.000000116627961 -0.000000094223886 0.000000409716845 0.000000378068064 -0.000000081085837 0.000000052673188 0.000001190831645 0.000000012098076 0.000000125435859 -0.000000012098076 -0.000000024082841 0.000000118688335 0.000000129632665 0.000000220757840 0.000000095085123 0.000000052052282 -0.000000047811521 -0.000000077070129 0.000000515488366 0.000000076493935 0.000000078347430 0.000000076644173 -0.000000019962558 -0.000000106584469 0.000000128874014 -0.000000136729377 0.000000131940200 0.000000026478993 -0.000000029724541 -0.000000085720629 0.000000086055080 -0.000000063096258 0.000000032084967 0.000000065665239 -0.000000024656785 -0.000000056986648 -0.000000078048460 0.000000049952569 0.000000076008818 0.000000061204668 0.000000061121225 -0.000000061457819 0.000000093703210 -0.000000097387066 -0.000000043019435 0.000000072006993 0.000000065302368 -0.000000065289800 0.000003649684443 0.000000071841335 -0.000000084388277 -0.000000048963541 -0.000000007288168 0.000000107172917 -0.000000111508887 0.000000101881758 0.000000092172335 0.000000118999477 0.000010965986818 -0.000000091103019 -0.000000120673083 -0.000000063310703 0.000000010678312 -0.000000129578956 -0.000000064202214 -0.000000041853912 0.000000153358843 -0.000000166945326 0.000000063245369 0.000000164911646 -0.000000129507826 0.000000110746252 -0.000000093265097 -0.000000050165835 -0.000000094190006 -0.000000027917810 -0.000000186088048 -0.000000117015095 0.000000175967176 -0.000000189038433 0.000000185059173 -0.000000037213708 -0.000000074842725 0.000000058617694 0.000000138804367 0.000000131503669 -0.000000119118673 -0.000000324047111 0.000000127092476 -0.000000189288313 -0.000000111957227 -0.000000082933758 -0.000000008973756 -0.000000149912000 -0.000000153861647 -0.000000197812957 -0.000000127762005 0.000000196647180 0.000010461717162 0.000000107583007 0.000000004871858 -0.000000152537874 -0.000000117927696 0.000000117927695 -0.000000066085332 0.000000117814112 -0.000000201113639 0.000000005205361 0.000000004718357 -0.000000001439572 -0.000000002682833 -0.000000041572681 -0.000000107895365 -0.000000083497959 -0.000000051247165 -0.000000029688186 -0.000000116701919 0.000000047507584 -0.000000044523692 0.000000025555471 -0.000000093715363 -0.000000094510917 0.000002892578193 0.000000107885601 -0.000000033358202 -0.000000033498151 0.000000095287143 0.000000018550272 0.000004789774169 0.000009387029033 0.000000026839813 -0.000000018430623 -0.000000126906670 0.000000089523824 0.000000013547850 -0.000000129139099 0.000000159287221 0.000000044027067 -0.000000068942894 -0.000000141419791 -0.000000001681694 0.000000113872340 0.000000046879862 -0.000000030024999 -0.000000070982014 0.000000128993497 -0.000000144478034 -0.000000115321277 0.000000024232229 -0.000000074459696 0.000000026982994 0.000000098425083 0.000000036731652 0.000012768591531 0.000000195005822 -0.000000000000001 0.000007529302781 -0.000000195005822 0.000000048580896 0.000000007818040 -0.000000137278252 0.000000046111837 0.000000105120788 -0.000000072535855 0.000000043995691 -0.000000053109770 0.000000076885654 0.000000106581033 0.000000046818983 0.000005132070779 -0.000000047184851 0.000004201178152 -0.000000134934060 0.000000079131572 0.000006562964200 -0.000000058062887 0.000000056757987 0.000000089368401 0.000000088056119 -0.000000122477283 0.000000062632397 0.000000029732338 0.000000059589352 0.000000062872961 -0.000000051079624 0.000000064447044 0.000000034551690 0.000000092459901 0.000000155279487 0.000000119821114 0.000000072314066 0.000000088024231 0.000000148012673 -0.000000034282520 0.000000157399155 -0.000000155925989 -0.000000026859699 0.000000116740058 -0.000000008720993 0.000000039221194 -0.000000136781008 -0.000000110908207 -0.000000132738993 -0.000000137384154 0.000000018653118 -0.000000078863844 -0.000000092086258 -0.000000104084809 0.000000193754207 -0.000000017076937 -0.000000190439578 -0.000000096331234 0.000000120066642 -0.000000074544003 0.000000096025792 0.000000138269140 -0.000000025256340 0.000000077393314 0.000000130269182 0.000000107324881 -0.000000061078908 0.000000165823889 0.000000126291209 0.000000173492186 0.000000033007061 -0.000000022369880 -0.000000174706357 -0.000000060661926 0.000000205565560 0.000000070916942 0.000000143412799 -0.000000101989804 0.000010884528948 0.000000171889592 -0.000000173391784 -0.000000025958311 0.000000071362846 0.000000046277331 0.000000015121784 -0.000000015721118 -0.000000153502289 0.000000091167593 -0.000000081174326 0.000000086499505 -0.000000106343033 -0.000000069415590 0.000000037871676 -0.000000102191076 0.000000136724324 -0.000000102951068 -0.000000104042870 -0.000000260964836 0.000000050780738 -0.000000136873501 -0.000000109588983 0.000000054925231 -0.000000142341427 -0.000000072533321 -0.000000017929371 -0.000000186645824 -0.000000083354461 -0.000000024952834 -0.000000076290034 0.000000077791521 -0.000000078811434 -0.000000041503568 -0.000000073622697 -0.000000072132949 0.000000137565243 0.000000070392318 -0.000000080624195 -0.000000081810719 -0.000000075906280 -0.000000073257539 -0.000000022002485 -0.000000048841182 -0.000000046496186 0.000000086238843 -0.000000081865214 0.000000019389441 -0.000000147566800 -0.000000092657070 0.000000128643002 -0.000000107132380 -0.000000079300617 0.000000053011703 0.000000059312811 0.000000079740484 0.000000094463378 0.000000107734125 -0.000000040400035 0.000000042386897 -0.000000028663112 0.000000075598893 0.000000115093171 -0.000000129155709 0.000000200979305 0.000000112126198 0.000000079649855 0.000000141029905 -0.000000026869793 0.000000036124100 0.000000152753060 0.000000149254210 0.000000004930534 -0.000000084116355 -0.000000055760437 -0.000000064668347 -0.000000027853051 0.000000029639188 0.000000127381861 -0.000000095946159 0.000000169594848 0.000001184461304 0.000000875094765 -0.000000034639919 0.000000058741892 -0.000000069022960 0.000000065806729 -0.000000065275000 -0.000000136121366 0.000000086570713 -0.000000110860334 0.000000003013104 0.000000143228190 0.000000005055706 -0.000000092737804 0.000000458350497 -0.000000099580662 -0.000000100779637 0.000000072256636 0.000000067196598 0.000000101613405 0.000000071699373 -0.000000023410422 -0.000000181367457 0.000000120426680 -0.000000001619425 -0.000000142689841 0.000000152653491 0.000000228646328 -0.000000000000001 -0.000000230807977 0.000013774313603 -0.000000011516894 0.000000055783786 -0.000000057078038 0.000000188895261 -0.000000114886463 0.000020440091500 0.000019151053828 0.000000329008674 -0.000000000000001 -0.000000126875692 0.000000116544815 -0.000000122872164 0.000000140992553 -0.000000080013824 -0.000000071824100 -0.000000169444759 0.000009906557103 0.000000092865000 -0.000000243653336 0.000015232755190 -0.000000000000000 0.000000243411279 -0.000000028908206 0.000000191943244 -0.000000194326667 -0.000000164107788 0.000000317040921 0.000000137641611 -0.000000064420069 -0.000000137010609 -0.000000166854458 0.000000164976314 0.000000229158149 0.000000079179608 -0.000000193028990 0.000000193428022 -0.000000035514264 0.000000202749120 -0.000000086916064 -0.000000132672014 0.000000130683815 -0.000000127820568 0.000000116500884 0.000000074247549 -0.000000060901193 0.000000212388423 0.000000159870073 0.000000339116060 -0.000000329161398 0.000000204877844 0.000000005846523 -0.000000192039252 0.000000288318465 0.000000205730356 -0.000000164185429 0.000000048054852 -0.000000043103215 -0.000000261865879 -0.000000010714182 0.000000016172972 -0.000000229765777 -0.000000135928859 -0.000000006055314 -0.000000004742673 -0.000000208466031 -0.000000209807044 -0.000000175883661 0.000000121215213 0.000000009673045 -0.000000100177308 0.000000533984390 -0.000000009671643 0.000000068952138 -0.000000093452843 -0.000000012400505 0.000000055880738 -0.000000060845982 0.000000082461927 -0.000000064222521 0.000000126214540 -0.000000061573702 0.000000139150313 0.000000005533441 -0.000000002839351 0.000000128417587 0.000000019372771 -0.000000074924880 
				</DataArray>
				<DataArray type="Float64" Name="u" format="ascii">
					-0.000000000000002 0.000000000000001 0.000000000000001 -0.000000000000001 -0.000000003204529 -0.000000000173954 0.000000000820750 0.000000001104653 0.000000001187512 0.000000001184666 0.000000001153406 0.000000001103282 0.000000001042678 0.000000000973386 0.000000000899760 0.000000000819842 0.000000000736743 0.000000000649954 0.000000000560687 0.000000000469508 0.000000000377248 0.000000000283720 0.000000000189524 0.000000000094814 0.000000000000000 0.000000000000000 0.000000000000002 0.000000000000000 -0.000000000000001 0.000000000000001 0.000000000000000 -0.000000000000000 -0.000000000000001 0.000000000000003 -0.000000000000003 0.000000000000004 0.000000000000000 -0.000000000000002 0.000000000000001 0.000000000000000 -0.000000000000002 0.000000000000001 0.000000000000003 -0.000000000000001 0.000000000075612 0.000000000151269 0.000000000227121 0.000000000303250 0.000000000380044 0.000000000457457 0.000000000536290 0.000000000617072 0.000000000701538 0.000000000789685 0.000000000886180 0.000000000990193 0.000000001112300 0.000000001258500 0.000000001456636 0.000000001714353 0.000000002142007 0.000000002975696 0.000000004597682 0.000000008494623 -0.000000000000000 0.000000000000000 -0.000000000000004 0.000000000000001 0.000000000000004 -0.000000000000007 0.000000000000001 -0.000000000000000 -0.000000000000000 0.000000000000000 -0.000000000000000 0.000000000000002 0.000000000000001 -0.000000000000000 0.000000000000002 0.000000000000001 -0.000000000000001 0.000000000000000 -0.000000000000000 0.000000000000001 0.000000001475611 0.000000000354872 0.000000000409716 0.000000000728853 0.000000000616822 0.000000001369891 0.000000001063189 0.000000000389551 0.000000000264992 0.000000000241376 0.000000001565052 0.000000000629161 0.000000000553021 0.000000000812664 0.000000001807264 0.000000002250361 0.000000000836239 0.000000000828118 0.000000000636906 0.000000000235668 0.000000000812043 0.000000000154900 0.000000000586932 0.000000000172712 0.000000000887505 0.000000000917152 0.000000000211507 0.000000000862155 0.000000001750701 0.000000001151463 0.000000001203911 0.000000000221200 0.000000000153393 0.000000002272036 0.000000001179329 0.000000000817796 0.000000000993894 0.000000000364395 0.000000000956255 0.000000001398411 0.000000000336754 0.000000000899189 0.000000000651364 0.000000001223745 0.000000000843034 0.000000002104250 0.000000000703381 0.000000000636554 0.000000000116325 0.000000000512350 0.000000000516982 0.000000000807451 0.000000001239095 0.000000000539082 0.000000000674807 0.000000000832723 0.000000001047855 0.000000000362663 0.000000001464356 0.000000001114284 0.000000000917334 0.000000002815024 0.000000000912925 0.000000000593486 0.000000000699350 0.000000000579259 0.000000000207337 0.000000001172245 0.000000000727315 0.000000000519521 0.000000001307769 0.000000001943284 0.000000000869621 0.000000000813734 0.000000000454416 0.000000001189719 0.000000001571685 0.000000000200887 0.000000000458197 0.000000001069262 0.000000001268408 -0.000000000131090 0.000000001180512 0.000000000468978 0.000000001159464 0.000000000467019 0.000000000157957 0.000000000662301 0.000000000253141 0.000000000511762 0.000000001785568 0.000000000841143 0.000000001428903 0.000000000696837 0.000000000770269 0.000000001670200 0.000000000701760 0.000000004098854 0.000000000410477 0.000000000092323 0.000000000116739 0.000000001210592 0.000000000707599 0.000000000101177 0.000000000843415 0.000000000315652 0.000000001348987 0.000000000250424 0.000000000718785 0.000000001804421 0.000000000536580 0.000000000399648 0.000000001321564 0.000000004187579 0.000000001228365 0.000000000113683 0.000000000800646 0.000000001004286 0.000000001747111 0.000000000323029 0.000000000433584 0.000000000829985 0.000000001114829 0.000000000194843 0.000000000302333 0.000000001031125 0.000000001152179 0.000000000413268 0.000000001298114 0.000000001339984 0.000000000625791 0.000000000636128 0.000000001417224 0.000000001063504 0.000000001169225 0.000000002970589 0.000000000957651 0.000000000233582 0.000000000584587 0.000000001012987 0.000000001651402 0.000000001035866 0.000000000946779 0.000000004365157 0.000000000087152 0.000000000938177 0.000000000368989 0.000000000883773 0.000000000263323 0.000000000079409 0.000000000150950 0.000000002301191 0.000000000061865 0.000000001162269 0.000000000189721 0.000000000688084 0.000000000686281 0.000000001028364 0.000000000903835 0.000000001490388 0.000000000842800 0.000000000170203 0.000000000679594 0.000000000547472 0.000000001549341 0.000000001356513 0.000000001238966 0.000000001110990 0.000000000767927 0.000000001931027 0.000000000381202 0.000000002739220 0.000000001015023 0.000000000808774 0.000000000927659 0.000000000407734 0.000000001177075 0.000000000529396 0.000000001684781 0.000000000694826 0.000000000832073 0.000000000298688 0.000000000816459 0.000000000514493 0.000000000857795 0.000000000965139 0.000000000727664 0.000000000871287 0.000000002188143 0.000000001135771 0.000000000615981 0.000000000054219 0.000000000502848 0.000000000231152 0.000000000649177 0.000000000635600 0.000000000815902 0.000000000908036 0.000000000784776 0.000000000071676 0.000000001797231 0.000000001616093 0.000000000233077 0.000000000586074 0.000000000305564 0.000000001378250 0.000000001361884 0.000000000852117 0.000000000463753 0.000000001249340 0.000000001589878 0.000000000496273 0.000000000669487 0.000000000517235 0.000000001219968 0.000000000078174 0.000000000699036 0.000000000786730 0.000000000575132 0.000000000178100 0.000000001013800 0.000000000199288 0.000000000549591 0.000000000159077 -0.000000001274151 0.000000000069235 0.000000000443513 0.000000001120801 0.000000001256970 0.000000000401139 0.000000001062036 0.000000001454058 0.000000000297818 0.000000000802964 0.000000000769386 0.000000001183459 0.000000000633520 0.000000000743390 0.000000000461691 0.000000001618358 0.000000000387439 0.000000001077059 0.000000000621909 0.000000000831881 0.000000001967761 0.000000000962950 0.000000000231941 0.000000000822501 0.000000000672656 0.000000000772493 0.000000000064111 0.000000003812006 0.000000000645467 0.000000001511113 0.000000001325754 0.000000000798827 0.000000001432184 0.000000000065930 0.000000002025827 0.000000000336606 0.000000001099550 0.000000002403269 0.000000000083772 0.000000001138933 0.000000003709199 0.000000001137595 -0.000000001018085 0.000000000078532 0.000000001308117 0.000000002686996 0.000000000275261 0.000000001277810 0.000000000744892 0.000000000902925 0.000000000862352 0.000000001130301 0.000000001129800 0.000000000721872 0.000000001217062 0.000000000714280 0.000000001250412 0.000000000516507 0.000000000610087 0.000000001053172 0.000000000955402 0.000000000704059 0.000000000995110 0.000000000286122 0.000000002337685 0.000000001091036 0.000000000816977 0.000000000292521 0.000000000928829 0.000000000907055 0.000000001273594 0.000000000225906 0.000000000520387 0.000000001492937 0.000000000646140 0.000000000343768 0.000000000639362 0.000000000178703 0.000000000568751 0.000000000222895 0.000000001350056 0.000000000513602 0.000000000769443 0.000000002607719 0.000000000875414 0.000000001184758 0.000000000309262 0.000000000887005 0.000000001972593 0.000000001242865 0.000000001441569 0.000000002080226 0.000000001502637 0.000000000297900 0.000000002310861 0.000000001217199 0.000000000440738 0.000000000170323 0.000000000433733 0.000000000402146 0.000000002282623 0.000000000889002 0.000000001907590 0.000000000375324 0.000000000738679 0.000000000578198 0.000000000260259 0.000000001404341 0.000000001299208 0.000000000946883 0.000000001482387 0.000000002460416 0.000000000735508 0.000000000370756 0.000000000471672 0.000000000432646 0.000000001743658 0.000000001005957 0.000000000289177 0.000000000656820 0.000000001317780 0.000000000854239 0.000000001427491 0.000000000128621 0.000000001166669 0.000000000224334 0.000000000803725 0.000000000560055 0.000000001303484 0.000000000839241 0.000000000459679 0.000000000339673 0.000000000693114 0.000000000267678 0.000000000291837 0.000000000530646 0.000000001406147 0.000000003124358 0.000000001074304 0.000000001699926 0.000000000897644 0.000000000197253 0.000000002063927 0.000000000850527 0.000000000400179 0.000000000546793 0.000000001546467 0.000000000723924 0.000000000420849 0.000000000320051 0.000000001130519 0.000000000903174 0.000000000807931 0.000000001108143 0.000000000760960 0.000000001409933 0.000000001089071 0.000000001095428 0.000000000766233 0.000000000949768 0.000000000579676 0.000000000767818 0.000000000622776 0.000000000140784 0.000000002268061 0.000000001603674 0.000000001641171 0.000000000403302 0.000000001441323 0.000000000513980 0.000000000536971 0.000000002325264 0.000000000592619 0.000000000412376 0.000000000941274 0.000000000953413 0.000000000554475 0.000000000938464 0.000000001247453 0.000000000215920 0.000000001613840 0.000000001830941 0.000000000118004 0.000000000086503 0.000000000584701 0.000000000903209 0.000000000856895 0.000000002055093 0.000000000970492 0.000000000466397 0.000000000350555 0.000000001444191 0.000000000098501 0.000000000461909 0.000000003057311 0.000000001299232 0.000000000132985 0.000000000369565 -0.000000000108632 0.000000000858190 0.000000001462001 0.000000000993845 0.000000001107762 0.000000000998587 0.000000000770017 0.000000000471786 0.000000000070269 0.000000001200450 0.000000001541772 0.000000001882074 0.000000000607617 0.000000001225166 0.000000000064099 0.000000001529823 0.000000002884170 0.000000000695756 0.000000000767794 0.000000001710996 0.000000000342317 0.000000000762162 0.000000000429153 0.000000002765391 0.000000000056495 0.000000000046916 0.000000000701611 0.000000000561306 0.000000000821637 0.000000000066912 0.000000000324051 0.000000001799192 0.000000000049491 0.000000004129819 0.000000000402945 0.000000001039331 0.000000004186208 0.000000000056473 0.000000001080868 0.000000000354799 0.000000000138558 0.000000000755569 0.000000000293346 0.000000001215859 0.000000000915149 0.000000000147705 0.000000000761790 0.000000000973669 0.000000001656733 0.000000000461497 0.000000000637116 0.000000000672233 0.000000000608410 0.000000000557997 0.000000001307661 0.000000001332520 0.000000001111009 0.000000000713981 0.000000000910776 0.000000001307870 0.000000001060309 0.000000001170144 0.000000000168517 0.000000003018444 0.000000000285572 0.000000000942342 0.000000001306514 0.000000000844021 0.000000000248047 0.000000000346003 0.000000001374051 0.000000000319166 0.000000000549238 0.000000000928907 0.000000001535360 0.000000000687050 0.000000000594084 0.000000000228799 0.000000000883951 0.000000000126855 0.000000000326880 0.000000000814151 0.000000000502268 0.000000001337978 0.000000001367463 0.000000000974539 0.000000000121282 0.000000001465741 0.000000000843993 0.000000000459553 0.000000001436333 0.000000001696677 0.000000000757006 0.000000001005000 0.000000000961282 0.000000000616274 0.000000000461647 0.000000002456529 0.000000003604681 0.000000001023571 0.000000001111475 0.000000000130193 0.000000000335898 0.000000001443557 
				</DataArray>
				<DataArray type="Float64" Name="v" format="ascii">