<VTKFile type="UnstructuredGrid" version="1.0" byte_order="LittleEndian" header_type="UInt64">
	<UnstructuredGrid>
		<FieldData>
			<DataArray type="Float64" Name="TimeValue" NumberOfTuples="1" format="ascii"> 0.11999999999999998 </DataArray>
		</FieldData>
		<Piece NumberOfPoints="610" NumberOfCells="1134">
			<PointData>
				<DataArray type="Float64" Name="pressure" format="ascii">
					10603.593534914591146 0.000000000000000 0.000000000000000 11329.993688403470514 0.000000899358476 -0.000000737013251 -0.000000079246614 -0.000000314895343 -0.000000289678996 -0.000000105063212 -0.000000350264043 -0.000000214209895 -0.000000193328835 -0.000000006033597 -0.000000749010154 -0.000000087374715 -0.000000234702867 -0.000000224123889 -0.000000259044926 -0.000000053484709 -0.000000266012895 -0.000000104000302 -0.000000739256919 -0.000000145658395 0.000000000000000 0.000000000000000 0.000000000000000 0.000000000000000 0.000000000000000 0.000000000000000 0.000000000000000 0.000000000000000 0.000000000000000 0.000000000000000 0.000000000000000 0.000000000000000 0.000000000000000 0.000000000000000 0.000000000000000 0.000000000000000 0.000000000000000 0.000000000000000 0.000000000000000 0.000000000000000 0.000000153671883 0.000000736969823 0.000000077982547 0.000000249671299 0.000000056454967 0.000000256288266 0.000000224123890 0.000000234702867 0.000000087374715 0.000000749010153 0.000000006033597 0.000000193385576 0.000000213938148 0.000000347543297 0.000000093820300 0.000000304631734 0.000000354781658 0.000000095635461 0.000000738937293 0.000000790094015 4978.255661202096235 15255.274563543061959 4486.995169065124173 8671.641047136507041 4474.600904269517741 7984.245408288347789 7462.712913619546271 7410.876682122200691 4694.623876464003843 15972.442102190485457 3986.409665737533942 8333.415582385037851 8467.498216138090356 8123.483004894413170 5587.313305108837994 9783.244082867788165 8228.802871444908305 4799.071872428226925 15324.142096070560001 5065.110274871448382 0.000000072832340 0.000000027766556 -0.000000034595416 -0.000000076301519 0.000000074923236 -0.000000068315353 0.000000004667791 0.000000102592515 -0.000000085285650 -0.000000024922225 -0.000000133282669 -0.000000003870509 0.000000138853084 0.000000051141837 -0.000000040879283 -0.000000075656396 0.000000005619950 -0.000000084581869 0.000000078874362 -0.000000030920834 0.000000071277074 0.000000067871403 -0.000000063213759 0.000000106076251 0.000000128646132 -0.000000027154985 -0.000000051459934 -0.000000083415614 0.000000070096687 0.000000077747424 -0.000000082704786 -0.000000028932888 -0.000000126928137 -0.000000098134459 0.000000194579503 0.000000172852877 -0.000000055729079 0.000000016171636 -0.000000114834240 -0.000000106747279 0.000000029853211 -0.000000096330844 0.000000119082150 0.000000026691290 -0.000000107433699 0.000000059012229 0.000000090912246 -0.000000013147914 -0.000000106286166 0.000000015758607 -0.000000107501226 0.000000190679201 -0.000000076540352 0.000000111524303 0.000000070854832 0.000000186544448 0.000000097541310 0.000000027604676 0.000000036385020 -0.000000029237967 0.000000153153541 0.000000091342499 -0.000000049089509 -0.000000073613668 -0.000000092298777 0.000000040484456 0.000000150829238 -0.000000018889164 -0.000000145466010 0.000000043699014 0.000000120288004 -0.000000041171905 -0.000000098235911 0.000000067970470 0.000000041836715 -0.000000097812135 -0.000000068048615 0.000000005353429 0.000000027945372 0.000000138823382 -0.000000120156360 0.000009488861011 0.000000124547858 -0.000000034014390 0.000000181415944 -0.000000162044495 -0.000000053305229 -0.000000018023109 -0.000000021828625 -0.000000087326808 0.000000059859174 0.000000153519123 -0.000000099688947 0.000000078669522 0.000000120038161 -0.000000116628005 -0.000000094223911 0.000000409724244 0.000000378075174 -0.000000081085871 0.000000052673210 0.000001190887482 0.000000012098096 0.000000125436030 -0.000000012098096 -0.000000024082883 0.000000118688523 0.000000129633259 0.000000220759139 0.000000095085192 0.000000052052313 -0.000000047811577 -0.000000077070187 0.000000515510714 0.000000076493980 0.000000078347480 0.000000076644194 -0.000000019962560 -0.000000106584981 0.000000128874583 -0.000000136730299 0.000000131941397 0.000000026478996 -0.000000029724546 -0.000000085720649 0.000000086055101 -0.000000063096373 0.000000032085235 0.000000065665296 -0.000000024656803 -0.000000056986663 -0.000000078048474 0.000000049952580 0.000000076008830 0.000000061204711 0.000000061121270 -0.000000061457872 0.000000093703269 -0.000000097387095 -0.000000043019489 0.000000072007144 0.000000065302388 -0.000000065289820 0.000003650175567 0.000000071841361 -0.000000084388670 -0.000000048963559 -0.000000007288193 0.000000107172964 -0.000000111509650 0.000000101882450 0.000000092172724 0.000000118999966 0.000011067006458 -0.000000091103394 -0.000000120673201 -0.000000063310755 0.000000010679360 -0.000000129579572 -0.000000064202368 -0.000000041854135 0.000000153359691 -0.000000166947497 0.000000063245631 0.000000164912324 -0.000000129507993 0.000000110746332 -0.000000093265140 -0.000000050165940 -0.000000094190160 -0.000000027917819 -0.000000186088899 -0.000000117015193 0.000000175967761 -0.000000189039400 0.000000185059819 -0.000000037213864 -0.000000074842815 0.000000058617756 0.000000138805804 0.000000131504041 -0.000000119119288 -0.000000324067453 0.000000127093426 -0.000000189289665 -0.000000111957477 -0.000000082934036 -0.000000008973771 -0.000000149912294 -0.000000153861862 -0.000000197814587 -0.000000127762783 0.000000196648756 0.000010465352122 0.000000107583393 0.000000004871865 -0.000000152538540 -0.000000117927810 0.000000117927810 -0.000000066085390 0.000000117814963 -0.000000201114782 0.000000005205408 0.000000004718407 -0.000000001439586 -0.000000002682845 -0.000000041572696 -0.000000107895414 -0.000000083497993 -0.000000051247183 -0.000000029688215 -0.000000116702017 0.000000047507600 -0.000000044523708 0.000000025555485 -0.000000093715405 -0.000000094510966 0.000002893496177 0.000000107885695 -0.000000033358212 -0.000000033498161 0.000000095287342 0.000000018550280 0.000004790762279 0.000009388387188 0.000000026839839 -0.000000018430630 -0.000000126906834 0.000000089523851 0.000000013547850 -0.000000129139338 0.000000159288212 0.000000044027089 -0.000000068942971 -0.000000141420290 -0.000000001681698 0.000000113872464 0.000000046879899 -0.000000030025007 -0.000000070982217 0.000000128993755 -0.000000144478742 -0.000000115321740 0.000000024232303 -0.000000074459939 0.000000026983004 0.000000098425108 0.000000036732051 0.000012877224082 0.000000195007751 0.000000000000000 0.000007532237297 -0.000000195007751 0.000000048580910 0.000000007818055 -0.000000137278610 0.000000046111864 0.000000105120911 -0.000000072535955 0.000000043995729 -0.000000053109868 0.000000076885705 0.000000106581170 0.000000046819039 0.000005133481919 -0.000000047184915 0.000004202059777 -0.000000134934381 0.000000079131754 0.000006563913343 -0.000000058062968 0.000000056758104 0.000000089368442 0.000000088056244 -0.000000122477423 0.000000062632434 0.000000029732404 0.000000059589472 0.000000062872997 -0.000000051079665 0.000000064447122 0.000000034551714 0.000000092459937 0.000000155279809 0.000000119821265 0.000000072314178 0.000000088024418 0.000000148013231 -0.000000034282832 0.000000157400504 -0.000000155927734 -0.000000026860065 0.000000116740396 -0.000000008721007 0.000000039221241 -0.000000136781186 -0.000000110908246 -0.000000132739184 -0.000000137384463 0.000000018653202 -0.000000078864359 -0.000000092086306 -0.000000104084911 0.000000193755290 -0.000000017077033 -0.000000190440579 -0.000000096331321 0.000000120066790 -0.000000074544103 0.000000096026405 0.000000138270040 -0.000000025256421 0.000000077393379 0.000000130270531 0.000000107324977 -0.000000061079172 0.000000165824879 0.000000126291339 0.000000173492780 0.000000033007236 -0.000000022369932 -0.000000174706854 -0.000000060661956 0.000000205567552 0.000000070917012 0.000000143413219 -0.000000101990500 0.000010984080181 0.000000171890038 -0.000000173392201 -0.000000025958336 0.000000071362877 0.000000046277405 0.000000015121785 -0.000000015721134 -0.000000153503429 0.000000091167624 -0.000000081174363 0.000000086499545 -0.000000106343133 -0.000000069415653 0.000000037871685 -0.000000102191169 0.000000136724567 -0.000000102951197 -0.000000104042935 -0.000000260972145 0.000000050780761 -0.000000136873594 -0.000000109589115 0.000000054926036 -0.000000142341788 -0.000000072533367 -0.000000017929376 -0.000000186646223 -0.000000083354606 -0.000000024952842 -0.000000076290047 0.000000077791578 -0.000000078811455 -0.000000041503577 -0.000000073622763 -0.000000072133030 0.000000137566156 0.000000070392411 -0.000000080624300 -0.000000081810748 -0.000000075906308 -0.000000073257562 -0.000000022002489 -0.000000048841205 -0.000000046496340 0.000000086238880 -0.000000081865251 0.000000019389474 -0.000000147567113 -0.000000092657265 0.000000128643316 -0.000000107132556 -0.000000079300670 0.000000053011741 0.000000059312858 0.000000079740523 0.000000094463459 0.000000107734227 -0.000000040400042 0.000000042386905 -0.000000028663166 0.000000075599009 0.000000115093447 -0.000000129156056 0.000000200981465 0.000000112127417 0.000000079649889 0.000000141030347 -0.000000026869932 0.000000036124131 0.000000152753769 0.000000149254738 0.000000004930538 -0.000000084116375 -0.000000055760493 -0.000000064668360 -0.000000027853067 0.000000029639208 0.000000127381987 -0.000000095946214 0.000000169595142 0.000001184633619 0.000000875135155 -0.000000034639929 0.000000058741921 -0.000000069023002 0.000000065806755 -0.000000065275023 -0.000000136121431 0.000000086570743 -0.000000110860586 0.000000003013108 0.000000143228337 0.000000005055714 -0.000000092737919 0.000000458357347 -0.000000099580711 -0.000000100780146 0.000000072256648 0.000000067196635 0.000000101613497 0.000000071699412 -0.000000023410428 -0.000000181369079 0.000000120427024 -0.000000001619427 -0.000000142690069 0.000000152659592 0.000000228648673 0.000000000000000 -0.000000230810409 0.000013782939278 -0.000000011516910 0.000000055783814 -0.000000057078238 0.000000188896121 -0.000000114887044 0.000020576848368 0.000019267802920 0.000000329025056 0.000000000000000 -0.000000126876645 0.000000116545355 -0.000000122872322 0.000000140992724 -0.000000080013994 -0.000000071824158 -0.000000169445311 0.000009910811725 0.000000092865296 -0.000000243655278 0.000015237270555 0.000000000000000 0.000000243413207 -0.000000028908234 0.000000191944556 -0.000000194328045 -0.000000164108953 0.000000317057423 0.000000137642152 -0.000000064420304 -0.000000137011134 -0.000000166855946 0.000000164976927 0.000000229160880 0.000000079179979 -0.000000193030374 0.000000193429027 -0.000000035514382 0.000000202749712 -0.000000086916202 -0.000000132672658 0.000000130683938 -0.000000127821131 0.000000116501118 0.000000074248229 -0.000000060901725 0.000000212390277 0.000000159872095 0.000000339135570 -0.000000329179773 0.000000204889631 0.000000005846531 -0.000000192050033 0.000000288326035 0.000000205731490 -0.000000164187996 0.000000048054954 -0.000000043103224 -0.000000261871497 -0.000000010714338 0.000000016173096 -0.000000229767791 -0.000000135929481 -0.000000006055353 -0.000000004742703 -0.000000208467309 -0.000000209811790 -0.000000175885009 0.000000121217166 0.000000009673046 -0.000000100177354 0.000000534001222 -0.000000009671645 0.000000068952192 -0.000000093452920 -0.000000012400562 0.000000055880768 -0.000000060846030 0.000000082461950 -0.000000064222534 0.000000126215211 -0.000000061573832 0.000000139150434 0.000000005533448 -0.000000002839356 0.000000128417674 0.000000019372782 -0.000000074924923 
				</DataArray>
				<DataArray type="Float64" Name="u" format="ascii">
					-0.000000000000002 0.000000000000001 0.000000000000001 -0.000000000000001 -0.000000003235926 -0.000000000188463 0.000000000812935 0.000000001099828 0.000000001184213 0.000000001182185 0.000000001151489 0.000000001101735 0.000000001041411 0.000000000972329 0.000000000898883 0.000000000819107 0.000000000736133 0.000000000649449 0.000000000560274 0.000000000469175 0.000000000376992 0.000000000283531 0.000000000189400 0.000000000094752 0.000000000000000 0.000000000000000 0.000000000000002 0.000000000000000 -0.000000000000001 0.000000000000001 0.000000000000000 -0.000000000000000 -0.000000000000001 0.000000000000003 -0.000000000000003 0.000000000000004 0.000000000000000 -0.000000000000002 0.000000000000001 0.000000000000000 -0.000000000000002 0.000000000000001 0.000000000000003 -0.000000000000001 0.000000000075905 0.000000000151857 0.000000000228012 0.000000000304453 0.000000000381580 0.000000000459340 0.000000000538548 0.000000000619743 0.000000000704676 0.000000000793340 0.000000000890457 0.000000000995173 0.000000001118168 0.000000001265493 0.000000001465230 0.000000001725063 0.000000002156268 0.000000002996821 0.000000004631895 0.000000008559743 -0.000000000000000 0.000000000000000 -0.000000000000004 0.000000000000001 0.000000000000004 -0.000000000000007 0.000000000000001 -0.000000000000000 -0.000000000000000 0.000000000000000 -0.000000000000000 0.000000000000002 0.000000000000001 -0.000000000000000 0.000000000000002 0.000000000000001 -0.000000000000001 0.000000000000000 -0.000000000000000 0.000000000000001 0.000000001475277 0.000000000354727 0.000000000411242 0.000000000730988 0.000000000616778 0.000000001370300 0.000000001062885 0.000000000390519 0.000000000264825 0.000000000241389 0.000000001564986 0.000000000629207 0.000000000554157 0.000000000813049 0.000000001807661 0.000000002250637 0.000000000838942 0.000000000827622 0.000000000639326 0.000000000235932 0.000000000813896 0.000000000155461 0.000000000588402 0.000000000173122 0.000000000888642 0.000000000920021 0.000000000211677 0.000000000863682 0.000000001750786 0.000000001157419 0.000000001202394 0.000000000221099 0.000000000153397 0.000000002272417 0.000000001178792 0.000000000820688 0.000000000993131 0.000000000364521 0.000000000957022 0.000000001399033 0.000000000337082 0.000000000898806 0.000000000653524 0.000000001224129 0.000000000845491 0.000000002104382 0.000000000703175 0.000000000636109 0.000000000116539 0.000000000514413 0.000000000517450 0.000000000807944 0.000000001238915 0.000000000539296 0.000000000676419 0.000000000832819 0.000000001048712 0.000000000363253 0.000000001464858 0.000000001119622 0.000000000916691 0.000000002815115 0.000000000916562 0.000000000594368 0.000000000700473 0.000000000579938 0.000000000207458 0.000000001173035 0.000000000730283 0.000000000519213 0.000000001307805 0.000000001943590 0.000000000869455 0.000000000815693 0.000000000454935 0.000000001190289 0.000000001572135 0.000000000200774 0.000000000459608 0.000000001070230 0.000000001275429 -0.000000000131355 0.000000001178604 0.000000000470776 0.000000001159177 0.000000000467242 0.000000000157899 0.000000000663967 0.000000000253811 0.000000000512519 0.000000001785718 0.000000000841317 0.000000001428306 0.000000000697685 0.000000000770219 0.000000001670555 0.000000000702136 0.000000004103797 0.000000000412354 0.000000000092671 0.000000000116668 0.000000001210924 0.000000000710694 0.000000000101274 0.000000000842704 0.000000000315635 0.000000001348197 0.000000000250923 0.000000000719749 0.000000001804273 0.000000000536481 0.000000000400595 0.000000001328946 0.000000004187692 0.000000001226364 0.000000000113673 0.000000000800369 0.000000001004502 0.000000001746865 0.000000000323974 0.000000000433439 0.000000000832487 0.000000001114592 0.000000000195492 0.000000000302176 0.000000001035403 0.000000001152479 0.000000000413352 0.000000001297649 0.000000001340455 0.000000000627023 0.000000000636267 0.000000001417168 0.000000001064089 0.000000001168244 0.000000002971002 0.000000000961970 0.000000000233629 0.000000000586402 0.000000001013325 0.000000001651645 0.000000001034722 0.000000000951393 0.000000004365717 0.000000000087186 0.000000000939384 0.000000000369452 0.000000000884327 0.000000000263227 0.000000000079365 0.000000000151529 0.000000002317416 0.000000000062088 0.000000001163303 0.000000000189600 0.000000000687804 0.000000000688247 0.000000001028380 0.000000000905248 0.000000001490871 0.000000000842184 0.000000000170376 0.000000000682403 0.000000000547494 0.000000001549146 0.000000001356818 0.000000001237911 0.000000001110543 0.000000000770468 0.000000001931443 0.000000000381390 0.000000002739326 0.000000001019688 0.000000000810459 0.000000000927154 0.000000000408144 0.000000001177558 0.000000000530329 0.000000001684829 0.000000000694827 0.000000000834148 0.000000000299054 0.000000000816079 0.000000000515113 0.000000000857727 0.000000000966051 0.000000000728149 0.000000000874156 0.000000002188196 0.000000001136482 0.000000000615524 0.000000000054321 0.000000000504924 0.000000000231378 0.000000000649904 0.000000000635378 0.000000000817098 0.000000000907189 0.000000000788353 0.000000000071729 0.000000001797490 0.000000001616528 0.000000000233612 0.000000000587164 0.000000000305518 0.000000001377440 0.000000001361143 0.000000000854146 0.000000000463905 0.000000001249009 0.000000001589604 0.000000000496249 0.000000000669077 0.000000000519180 0.000000001220775 0.000000000078293 0.000000000698496 0.000000000787061 0.000000000577549 0.000000000178377 0.000000001014407 0.000000000199884 0.000000000549207 0.000000000159427 -0.000000001273842 0.000000000069387 0.000000000445295 0.000000001121163 0.000000001257115 0.000000000401926 0.000000001062762 0.000000001454546 0.000000000298864 0.000000000803227 0.000000000770326 0.000000001184283 0.000000000635278 0.000000000744018 0.000000000462882 0.000000001618240 0.000000000387236 0.000000001081831 0.000000000621767 0.000000000834028 0.000000001967764 0.000000000965491 0.000000000232775 0.000000000823892 0.000000000672818 0.000000000771856 0.000000000064188 0.000000003812863 0.000000000648258 0.000000001511628 0.000000001326380 0.000000000801213 0.000000001432280 0.000000000066138 0.000000002039195 0.000000000336387 0.000000001104898 0.000000002403483 0.000000000083782 0.000000001137364 0.000000003709903 0.000000001143590 -0.000000001018324 0.000000000078501 0.000000001304360 0.000000002687981 0.000000000276334 0.000000001278545 0.000000000745047 0.000000000903345 0.000000000863184 0.000000001130119 0.000000001130580 0.000000000723617 0.000000001216996 0.000000000715666 0.000000001247048 0.000000000516797 0.000000000610369 0.000000001054108 0.000000000956471 0.000000000706637 0.000000000994691 0.000000000286360 0.000000002338092 0.000000001090366 0.000000000820179 0.000000000292648 0.000000000929483 0.000000000906792 0.000000001272394 0.000000000225894 0.000000000521673 0.000000001493364 0.000000000647153 0.000000000345035 0.000000000639825 0.000000000179057 0.000000000569493 0.000000000222832 0.000000001348808 0.000000000514927 0.000000000769298 0.000000002608090 0.000000000878888 0.000000001184046 0.000000000309343 0.000000000887968 0.000000001972782 0.000000001243137 0.000000001442141 0.000000002080578 0.000000001502853 0.000000000298425 0.000000002310936 0.000000001223439 0.000000000440483 0.000000000170788 0.000000000434379 0.000000000402476 0.000000002282783 0.000000000892179 0.000000001903501 0.000000000376651 0.000000000738217 0.000000000580426 0.000000000260637 0.000000001412404 0.000000001298522 0.000000000946980 0.000000001482730 0.000000002460682 0.000000000735137 0.000000000370530 0.000000000472658 0.000000000432918 0.000000001743602 0.000000001006443 0.000000000289357 0.000000000657408 0.000000001316503 0.000000000854253 0.000000001428178 0.000000000129009 0.000000001167412 0.000000000224296 0.000000000807150 0.000000000562026 0.000000001303473 0.000000000842900 0.000000000459574 0.000000000339704 0.000000000693350 0.000000000268525 0.000000000292944 0.000000000530740 0.000000001405920 0.000000003124812 0.000000001073369 0.000000001700274 0.000000000901688 0.000000000197327 0.000000002063867 0.000000000853160 0.000000000401345 0.000000000546608 0.000000001546053 0.000000000725177 0.000000000420793 0.000000000320762 0.000000001130755 0.000000000903486 0.000000000808653 0.000000001109087 0.000000000761021 0.000000001407971 0.000000001090450 0.000000001095369 0.000000000767709 0.000000000950966 0.000000000580051 0.000000000767252 0.000000000625349 0.000000000140960 0.000000002268728 0.000000001603799 0.000000001641645 0.000000000403294 0.000000001440820 0.000000000515656 0.000000000536704 0.000000002325273 0.000000000592248 0.000000000413738 0.000000000944840 0.000000000953362 0.000000000554995 0.000000000939539 0.000000001248082 0.000000000216745 0.000000001611142 0.000000001842904 0.000000000117947 0.000000000086798 0.000000000584908 0.000000000904813 0.000000000858337 0.000000002055023 0.000000000974231 0.000000000466182 0.000000000351726 0.000000001452564 0.000000000098752 0.000000000461601 0.000000003057591 0.000000001297076 0.000000000132953 0.000000000371018 -0.000000000108002 0.000000000859825 0.000000001462565 0.000000000993651 0.000000001107854 0.000000000999707 0.000000000771968 0.000000000472176 0.000000000070269 0.000000001200484 0.000000001542257 0.000000001882150 0.000000000609705 0.000000001222536 0.000000000064088 0.000000001538977 0.000000002884428 0.000000000695657 0.000000000769642 0.000000001710727 0.000000000343197 0.000000000763342 0.000000000431990 0.000000002778344 0.000000000056460 0.000000000047096 0.000000000701123 0.000000000563559 0.000000000823072 0.000000000066892 0.000000000325328 0.000000001810612 0.000000000049630 0.000000004130389 0.000000000402676 0.000000001044629 0.000000004186738 0.000000000056487 0.000000001079510 0.000000000355053 0.000000000139020 0.000000000755532 0.000000000293173 0.000000001222392 0.000000000914388 0.000000000147817 0.000000000765116 0.000000000973360 0.000000001657396 0.000000000462306 0.000000000638591 0.000000000673559 0.000000000608614 0.000000000558153 0.000000001307576 0.000000001332349 0.000000001111473 0.000000000716349 0.000000000910995 0.000000001308282 0.000000001065547 0.000000001168854 0.000000000168538 0.000000003018877 0.000000000285448 0.000000000945193 0.000000001306032 0.000000000845865 0.000000000248894 0.000000000346663 0.000000001374570 0.000000000319632 0.000000000550780 0.000000000929825 0.000000001535384 0.000000000687139 0.000000000595143 0.000000000229196 0.000000000884736 0.000000000127132 0.000000000327509 0.000000000815168 0.000000000503690 0.000000001338631 0.000000001367672 0.000000000973616 0.000000000121352 0.000000001466003 0.000000000847877 0.000000000459586 0.000000001435962 0.000000001697093 0.000000000759881 0.000000001004422 0.000000000965198 0.000000000615979 0.000000000463269 0.000000002456616 0.000000003605183 0.000000001028641 0.000000001110213 0.000000000130222 0.000000000335813 0.000000001442968 
				</DataArray>
				<DataArray type="Float64" Name="v" format="ascii">