<VTKFile type="UnstructuredGrid" version="1.0" byte_order="LittleEndian" header_type="UInt64">
	<UnstructuredGrid>
		<FieldData>
			<DataArray type="Float64" Name="TimeValue" NumberOfTuples="1" format="ascii"> 0.05 </DataArray>
		</FieldData>
		<Piece NumberOfPoints="610" NumberOfCells="1134">
			<PointData>
				<DataArray type="Float64" Name="pressure" format="ascii">
					10439.186704671625193 0.000000000000000 0.000000000000000 11154.324153323344945 0.000000878116808 -0.000000725585912 -0.000000079237259 -0.000000314755922 -0.000000289323200 -0.000000105049034 -0.000000350008035 -0.000000214109445 -0.000000193245509 -0.000000006033198 -0.000000737396803 -0.000000087365419 -0.000000234463572 -0.000000223969919 -0.000000258859619 -0.000000053481214 -0.000000265932591 -0.000000103974658 -0.000000727794793 -0.000000145650863 0.000000000000000 0.000000000000000 0.000000000000000 0.000000000000000 0.000000000000000 0.000000000000000 0.000000000000000 0.000000000000000 0.000000000000000 0.000000000000000 0.000000000000000 0.000000000000000 0.000000000000000 0.000000000000000 0.000000000000000 0.000000000000000 0.000000000000000 0.000000000000000 0.000000000000000 0.000000000000000 0.000000153661620 0.000000725543158 0.000000077971408 0.000000249622551 0.000000056451899 0.000000256107741 0.000000223969927 0.000000234463563 0.000000087365423 0.000000737396804 0.000000006033200 0.000000193302138 0.000000213838217 0.000000347281253 0.000000093810836 0.000000304235876 0.000000354609614 0.000000095627863 0.000000727480123 0.000000777056398 4978.085752882111592 15018.744248769547994 4486.466478674103200 8668.406881928200164 4474.399665006214491 7980.013523653661650 7458.392848383534329 7404.757549891575763 4694.111940130826042 15724.792232752677592 3986.156735790350012 8329.823214781406932 8463.586180348149355 8117.328595462226076 5586.691633435585572 9770.681778999352900 8224.227360408120148 4797.890588051613122 15086.544002481041389 5064.850334824148376 0.000000072832291 0.000000027766534 -0.000000034595103 -0.000000076300549 0.000000074922744 -0.000000068314458 0.000000004667699 0.000000102591978 -0.000000085284698 -0.000000024922095 -0.000000133282117 -0.000000003870488 0.000000138852614 0.000000051141271 -0.000000040879173 -0.000000075656249 0.000000005619932 -0.000000084581680 0.000000078874265 -0.000000030920779 0.000000071275044 0.000000067871319 -0.000000063213556 0.000000106075612 0.000000128644765 -0.000000027154962 -0.000000051459584 -0.000000083414850 0.000000070095394 0.000000077746615 -0.000000082703980 -0.000000028932839 -0.000000126926887 -0.000000098131322 0.000000194573551 0.000000172846751 -0.000000055725853 0.000000016171193 -0.000000114833088 -0.000000106746428 0.000000029853152 -0.000000096330618 0.000000119080480 0.000000026690671 -0.000000107433054 0.000000059011901 0.000000090912066 -0.000000013147707 -0.000000106285170 0.000000015758364 -0.000000107500162 0.000000190672470 -0.000000076540082 0.000000111523913 0.000000070854483 0.000000186539628 0.000000097541066 0.000000027604436 0.000000036384351 -0.000000029237870 0.000000153152297 0.000000091342154 -0.000000049088867 -0.000000073613576 -0.000000092298650 0.000000040484091 0.000000150818631 -0.000000018889074 -0.000000145465094 0.000000043697894 0.000000120287082 -0.000000041171281 -0.000000098234985 0.000000067970238 0.000000041836402 -0.000000097811789 -0.000000068048530 0.000000005353417 0.000000027945083 0.000000138821361 -0.000000120151285 0.000009476829710 0.000000124542049 -0.000000034013407 0.000000181398995 -0.000000162032166 -0.000000053304977 -0.000000018023021 -0.000000021828542 -0.000000087325619 0.000000059858271 0.000000153514035 -0.000000099688798 0.000000078668890 0.000000120036861 -0.000000116627715 -0.000000094223757 0.000000409686269 0.000000378036617 -0.000000081085662 0.000000052673056 0.000001190634674 0.000000012097980 0.000000125434912 -0.000000012097982 -0.000000024082627 0.000000118687304 0.000000129629883 0.000000220751963 0.000000095084726 0.000000052052117 -0.000000047811223 -0.000000077069794 0.000000515409613 0.000000076493669 0.000000078347154 0.000000076644080 -0.000000019962534 -0.000000106582071 0.000000128871335 -0.000000136725303 0.000000131935165 0.000000026478969 -0.000000029724513 -0.000000085720541 0.000000086054988 -0.000000063095653 0.000000032083811 0.000000065664925 -0.000000024656692 -0.000000056986554 -0.000000078048393 0.000000049952535 0.000000076008780 0.000000061204434 0.000000061120980 -0.000000061457530 0.000000093702863 -0.000000097386916 -0.000000043019153 0.000000072006187 0.000000065302250 -0.000000065289682 0.000003648358084 0.000000071841202 -0.000000084386444 -0.000000048963455 -0.000000007288053 0.000000107172667 -0.000000111505537 0.000000101878712 0.000000092170494 0.000000118997157 0.000010863270126 -0.000000091101241 -0.000000120672405 -0.000000063310415 0.000000010675445 -0.000000129576084 -0.000000064201436 -0.000000041852869 0.000000153354973 -0.000000166936710 0.000000063244129 0.000000164908430 -0.000000129506905 0.000000110745789 -0.000000093264855 -0.000000050165272 -0.000000094189179 -0.000000027917743 -0.000000186084072 -0.000000117014531 0.000000175964315 -0.000000189033987 0.000000185056038 -0.000000037212954 -0.000000074842210 0.000000058617329 0.000000138798450 0.000000131501782 -0.000000119115845 -0.000000323986496 0.000000127088360 -0.000000189282413 -0.000000111955939 -0.000000082932402 -0.000000008973679 -0.000000149910463 -0.000000153860462 -0.000000197806002 -0.000000127758520 0.000000196640423 0.000010452844468 0.000000107581138 0.000000004871818 -0.000000152534740 -0.000000117927057 0.000000117927054 -0.000000066084991 0.000000117810402 -0.000000201108467 0.000000005205164 0.000000004718151 -0.000000001439514 -0.000000002682776 -0.000000041572588 -0.000000107895102 -0.000000083497773 -0.000000051247048 -0.000000029688038 -0.000000116701360 0.000000047507510 -0.000000044523616 0.000000025555410 -0.000000093715121 -0.000000094510650 0.000002890427877 0.000000107885068 -0.000000033358169 -0.000000033498115 0.000000095286108 0.000000018550244 0.000004787258751 0.000009383233296 0.000000026839653 -0.000000018430597 -0.000000126905764 0.000000089523680 0.000000013547841 -0.000000129137828 0.000000159282774 0.000000044026929 -0.000000068942473 -0.000000141417348 -0.000000001681687 0.000000113871651 0.000000046879658 -0.000000030024940 -0.000000070981002 0.000000128992130 -0.000000144474732 -0.000000115319048 0.000000024231867 -0.000000074458508 0.000000026982956 0.000000098424961 0.000000036730031 0.000012658152915 0.000000194997833 -0.000000000000002 0.000007522500847 -0.000000194997832 0.000000048580829 0.000000007817959 -0.000000137276413 0.000000046111695 0.000000105120104 -0.000000072535286 0.000000043995461 -0.000000053109236 0.000000076885377 0.000000106580280 0.000000046818656 0.000005128628683 -0.000000047184483 0.000004198887616 -0.000000134932415 0.000000079130613 0.000006560291185 -0.000000058062428 0.000000056757383 0.000000089368164 0.000000088055423 -0.000000122476493 0.000000062632197 0.000000029732001 0.000000059588731 0.000000062872740 -0.000000051079376 0.000000064446619 0.000000034551568 0.000000092459709 0.000000155277799 0.000000119820271 0.000000072313472 0.000000088023261 0.000000148009963 -0.000000034281213 0.000000157393433 -0.000000155918907 -0.000000026858261 0.000000116738376 -0.000000008720900 0.000000039220916 -0.000000136780025 -0.000000110907995 -0.000000132737957 -0.000000137382540 0.000000018652727 -0.000000078861543 -0.000000092085971 -0.000000104084223 0.000000193749296 -0.000000017076503 -0.000000190434995 -0.000000096330729 0.000000120065835 -0.000000074543465 0.000000096023067 0.000000138265152 -0.000000025255923 0.000000077392952 0.000000130263636 0.000000107324326 -0.000000061077663 0.000000165819442 0.000000126290476 0.000000173489294 0.000000033006258 -0.000000022369614 -0.000000174703878 -0.000000060661766 0.000000205557256 0.000000070916553 0.000000143410681 -0.000000101986740 0.000010783326219 0.000000171887318 -0.000000173389631 -0.000000025958155 0.000000071362666 0.000000046276918 0.000000015121766 -0.000000015721040 -0.000000153497327 0.000000091167425 -0.000000081174108 0.000000086499289 -0.000000106342452 -0.000000069415243 0.000000037871621 -0.000000102190541 0.000000136723019 -0.000000102950363 -0.000000104042510 -0.000000260939561 0.000000050780621 -0.000000136872969 -0.000000109588237 0.000000054922117 -0.000000142339581 -0.000000072533069 -0.000000017929359 -0.000000186643764 -0.000000083353688 -0.000000024952779 -0.000000076289989 0.000000077791183 -0.000000078811335 -0.000000041503518 -0.000000073622312 -0.000000072132507 0.000000137561188 0.000000070391813 -0.000000080623609 -0.000000081810557 -0.000000075906136 -0.000000073257406 -0.000000022002459 -0.000000048841038 -0.000000046495415 0.000000086238647 -0.000000081865009 0.000000019389255 -0.000000147565153 -0.000000092656039 0.000000128641389 -0.000000107131420 -0.000000079300306 0.000000053011500 0.000000059312530 0.000000079740272 0.000000094462911 0.000000107733551 -0.000000040399991 0.000000042386853 -0.000000028662812 0.000000075598250 0.000000115091755 -0.000000129153936 0.000000200970483 0.000000112121228 0.000000079649657 0.000000141027699 -0.000000026869156 0.000000036123928 0.000000152749726 0.000000149251648 0.000000004930527 -0.000000084116264 -0.000000055760131 -0.000000064668302 -0.000000027852975 0.000000029639086 0.000000127381154 -0.000000095945837 0.000000169593261 0.000001183952413 0.000000874953874 -0.000000034639885 0.000000058741710 -0.000000069022723 0.000000065806593 -0.000000065274884 -0.000000136120995 0.000000086570553 -0.000000110859024 0.000000003013090 0.000000143227359 0.000000005055674 -0.000000092737156 0.000000458321349 -0.000000099580377 -0.000000100777288 0.000000072256598 0.000000067196395 0.000000101612881 0.000000071699165 -0.000000023410408 -0.000000181360623 0.000000120424965 -0.000000001619412 -0.000000142688626 0.000000152633718 0.000000228636676 -0.000000000000002 -0.000000230798011 0.000013756473445 -0.000000011516814 0.000000055783632 -0.000000057077062 0.000000188891239 -0.000000114883782 0.000020299636989 0.000019030143929 0.000000328957690 -0.000000000000003 -0.000000126871564 0.000000116542291 -0.000000122871310 0.000000140991621 -0.000000080012946 -0.000000071823786 -0.000000169442052 0.000009897197922 0.000000092863545 -0.000000243645005 0.000015221248490 -0.000000000000001 0.000000243403002 -0.000000028908058 0.000000191937475 -0.000000194320642 -0.000000164102699 0.000000316989986 0.000000137639027 -0.000000064418932 -0.000000137008091 -0.000000166848189 0.000000164973361 0.000000229147187 0.000000079177884 -0.000000193022950 0.000000193423379 -0.000000035513688 0.000000202746140 -0.000000086915328 -0.000000132669031 0.000000130683142 -0.000000127817922 0.000000116499671 0.000000074244695 -0.000000060898944 0.000000212380583 0.000000159862038 0.000000339056960 -0.000000329105422 0.000000204842141 0.000000005846481 -0.000000192006442 0.000000288291984 0.000000205725204 -0.000000164175590 0.000000048054326 -0.000000043103155 -0.000000261845503 -0.000000010713578 0.000000016172438 -0.000000229757267 -0.000000135925951 -0.000000006055142 -0.000000004742539 -0.000000208460290 -0.000000209789967 -0.000000175877819 0.000000121207746 0.000000009673023 -0.000000100177047 0.000000533917767 -0.000000009671621 0.000000068951819 -0.000000093452408 -0.000000012400249 0.000000055880576 -0.000000060845695 0.000000082461810 -0.000000064222470 0.000000126211462 -0.000000061573002 0.000000139149624 0.000000005533417 -0.000000002839337 0.000000128417081 0.000000019372693 -0.000000074924633 
				</DataArray>
				<DataArray type="Float64" Name="u" format="ascii">
					-0.000000000000002 0.000000000000001 0.000000000000001 -0.000000000000001 -0.000000003172672 -0.000000000159292 0.000000000828596 0.000000001109453 0.000000001190755 0.000000001187075 0.000000001155240 0.000000001104740 0.000000001043854 0.000000000974353 0.000000000900550 0.000000000820494 0.000000000737276 0.000000000650390 0.000000000561041 0.000000000469789 0.000000000377464 0.000000000283876 0.000000000189626 0.000000000094864 0.000000000000000 0.000000000000000 0.000000000000002 0.000000000000000 -0.000000000000001 0.000000000000001 0.000000000000000 -0.000000000000000 -0.000000000000001 0.000000000000003 -0.000000000000003 0.000000000000004 0.000000000000000 -0.000000000000002 0.000000000000001 0.000000000000000 -0.000000000000002 0.000000000000001 0.000000000000003 -0.000000000000001 0.000000000075306 0.000000000150656 0.000000000226193 0.000000000301998 0.000000000378448 0.000000000455501 0.000000000533946 0.000000000614305 0.000000000698291 0.000000000785908 0.000000000881769 0.000000000985064 0.000000001106269 0.000000001251326 0.000000001447837 0.000000001703409 0.000000002127461 0.000000002954188 0.000000004562892 0.000000008428451 -0.000000000000000 0.000000000000000 -0.000000000000004 0.000000000000001 0.000000000000004 -0.000000000000007 0.000000000000001 -0.000000000000000 -0.000000000000000 0.000000000000000 -0.000000000000000 0.000000000000002 0.000000000000001 -0.000000000000000 0.000000000000002 0.000000000000001 -0.000000000000001 0.000000000000000 -0.000000000000000 0.000000000000001 0.000000001475782 0.000000000354974 0.000000000408124 0.000000000726591 0.000000000616777 0.000000001369186 0.000000001063354 0.000000000388505 0.000000000265128 0.000000000241326 0.000000001564891 0.000000000629018 0.000000000551785 0.000000000812138 0.000000001806524 0.000000002249681 0.000000000833394 0.000000000828519 0.000000000634383 0.000000000235363 0.000000000810039 0.000000000154313 0.000000000585360 0.000000000172273 0.000000000886200 0.000000000914131 0.000000000211301 0.000000000860460 0.000000001750412 0.000000001145337 0.000000001205331 0.000000000221274 0.000000000153367 0.000000002271217 0.000000001179726 0.000000000814769 0.000000000994552 0.000000000364210 0.000000000955310 0.000000001397486 0.000000000336368 0.000000000899462 0.000000000649095 0.000000001223144 0.000000000840430 0.000000002103787 0.000000000703493 0.000000000636929 0.000000000116091 0.000000000510206 0.000000000516396 0.000000000806814 0.000000001239103 0.000000000538777 0.000000000673075 0.000000000832496 0.000000001046794 0.000000000362009 0.000000001463573 0.000000001108778 0.000000000917876 0.000000002814584 0.000000000909141 0.000000000592498 0.000000000698100 0.000000000578476 0.000000000207182 0.000000001171220 0.000000000724231 0.000000000519768 0.000000001307531 0.000000001942626 0.000000000869667 0.000000000811628 0.000000000453815 0.000000001188925 0.000000001571159 0.000000000200976 0.000000000456709 0.000000001068080 0.000000001261205 -0.000000000130536 0.000000001182335 0.000000000467104 0.000000001159597 0.000000000466718 0.000000000157995 0.000000000660515 0.000000000252428 0.000000000510914 0.000000001785126 0.000000000840832 0.000000001429412 0.000000000695862 0.000000000770206 0.000000001669540 0.000000000701263 0.000000004093710 0.000000000408538 0.000000000091960 0.000000000116797 0.000000001209970 0.000000000704394 0.000000000101063 0.000000000844039 0.000000000315624 0.000000001349637 0.000000000249881 0.000000000717667 0.000000001804326 0.000000000536605 0.000000000398631 0.000000001313992 0.000000004187145 0.000000001230282 0.000000000113678 0.000000000800820 0.000000001003903 0.000000001747138 0.000000000322030 0.000000000433674 0.000000000827341 0.000000001114982 0.000000000194162 0.000000000302454 0.000000001026688 0.000000001151630 0.000000000413119 0.000000001298421 0.000000001339264 0.000000000624447 0.000000000635886 0.000000001417070 0.000000001062724 0.000000001170093 0.000000002969579 0.000000000953184 0.000000000233499 0.000000000582672 0.000000001012473 0.000000001650874 0.000000001036916 0.000000000942022 0.000000004363741 0.000000000087104 0.000000000936778 0.000000000368460 0.000000000883059 0.000000000263384 0.000000000079444 0.000000000150345 0.000000002284670 0.000000000061631 0.000000001161183 0.000000000189819 0.000000000688278 0.000000000684197 0.000000001028191 0.000000000902247 0.000000001489556 0.000000000843326 0.000000000170000 0.000000000676676 0.000000000547367 0.000000001549324 0.000000001355971 0.000000001239904 0.000000001111301 0.000000000765256 0.000000001930234 0.000000000380950 0.000000002738812 0.000000001010203 0.000000000806941 0.000000000928056 0.000000000407252 0.000000001176377 0.000000000528369 0.000000001684473 0.000000000694721 0.000000000829847 0.000000000298270 0.000000000816739 0.000000000513781 0.000000000857738 0.000000000964042 0.000000000727050 0.000000000868271 0.000000002187783 0.000000001134841 0.000000000616372 0.000000000054108 0.000000000500692 0.000000000230872 0.000000000648331 0.000000000635741 0.000000000814555 0.000000000908793 0.000000000781078 0.000000000071610 0.000000001796658 0.000000001615352 0.000000000232502 0.000000000584864 0.000000000305567 0.000000001378922 0.000000001362516 0.000000000849944 0.000000000463524 0.000000001249509 0.000000001589944 0.000000000496225 0.000000000669820 0.000000000515206 0.000000001218892 0.000000000078042 0.000000000699501 0.000000000786207 0.000000000572623 0.000000000177792 0.000000001012955 0.000000000198659 0.000000000549914 0.000000000158692 -0.000000001274240 0.000000000069070 0.000000000441661 0.000000001120242 0.000000001256619 0.000000000400281 0.000000001061107 0.000000001453261 0.000000000296723 0.000000000802566 0.000000000768304 0.000000001182391 0.000000000631653 0.000000000742628 0.000000000460421 0.000000001618266 0.000000000387595 0.000000001072123 0.000000000621966 0.000000000829584 0.000000001967476 0.000000000960252 0.000000000231068 0.000000000820957 0.000000000672349 0.000000000773049 0.000000000064022 0.000000003810165 0.000000000642574 0.000000001510300 0.000000001324867 0.000000000796304 0.000000001431861 0.000000000065712 0.000000002012189 0.000000000336788 0.000000001094037 0.000000002402664 0.000000000083748 0.000000001140412 0.000000003707530 0.000000001131433 -0.000000001017529 0.000000000078553 0.000000001311832 0.000000002685547 0.000000000274143 0.000000001276804 0.000000000744616 0.000000000902346 0.000000000861358 0.000000001130326 0.000000001128799 0.000000000719999 0.000000001216950 0.000000000712764 0.000000001253724 0.000000000516129 0.000000000609701 0.000000001052027 0.000000000954147 0.000000000701364 0.000000000995406 0.000000000285835 0.000000002336819 0.000000001091584 0.000000000813644 0.000000000292345 0.000000000928005 0.000000000907199 0.000000001274682 0.000000000225885 0.000000000519009 0.000000001492234 0.000000000645009 0.000000000342444 0.000000000638787 0.000000000178318 0.000000000567886 0.000000000222928 0.000000001351204 0.000000000512185 0.000000000769481 0.000000002606845 0.000000000871799 0.000000001185341 0.000000000309131 0.000000000885874 0.000000001972073 0.000000001242381 0.000000001440699 0.000000002079485 0.000000001502168 0.000000000297323 0.000000002310434 0.000000001210780 0.000000000440942 0.000000000169830 0.000000000433010 0.000000000401745 0.000000002282103 0.000000000885677 0.000000001911643 0.000000000373939 0.000000000739056 0.000000000575878 0.000000000259836 0.000000001396081 0.000000001299751 0.000000000946637 0.000000001481778 0.000000002459716 0.000000000735792 0.000000000370939 0.000000000470603 0.000000000432300 0.000000001743463 0.000000001005290 0.000000000288948 0.000000000656115 0.000000001318950 0.000000000854095 0.000000001426477 0.000000000128211 0.000000001165660 0.000000000224341 0.000000000800174 0.000000000557992 0.000000001303315 0.000000000835457 0.000000000459722 0.000000000339591 0.000000000692763 0.000000000266787 0.000000000290683 0.000000000530468 0.000000001406183 0.000000003123288 0.000000001075133 0.000000001699235 0.000000000893461 0.000000000197147 0.000000002063712 0.000000000847747 0.000000000398944 0.000000000546907 0.000000001546696 0.000000000722525 0.000000000420847 0.000000000319284 0.000000001130093 0.000000000902708 0.000000000807061 0.000000001106965 0.000000000760780 0.000000001411821 0.000000001087506 0.000000001095326 0.000000000764617 0.000000000948385 0.000000000579199 0.000000000768301 0.000000000620103 0.000000000140583 0.000000002266827 0.000000001603290 0.000000001640372 0.000000000403251 0.000000001441657 0.000000000512217 0.000000000537174 0.000000002324950 0.000000000592923 0.000000000410945 0.000000000937555 0.000000000953323 0.000000000553856 0.000000000937191 0.000000001246583 0.000000000215060 0.000000001616483 0.000000001818735 0.000000000118047 0.000000000086193 0.000000000584497 0.000000000901457 0.000000000855290 0.000000002054885 0.000000000966598 0.000000000466555 0.000000000349327 0.000000001435614 0.000000000098233 0.000000000462165 0.000000003056498 0.000000001301310 0.000000000132998 0.000000000368053 -0.000000000109247 0.000000000856393 0.000000001461106 0.000000000993903 0.000000001107495 0.000000000997265 0.000000000767929 0.000000000471313 0.000000000070259 0.000000001200230 0.000000001540972 0.000000001881707 0.000000000605429 0.000000001227727 0.000000000064102 0.000000001520455 0.000000002883506 0.000000000695756 0.000000000765805 0.000000001711048 0.000000000341378 0.000000000760842 0.000000000426260 0.000000002752192 0.000000000056524 0.000000000046730 0.000000000702022 0.000000000558963 0.000000000820040 0.000000000066923 0.000000000322721 0.000000001787528 0.000000000049343 0.000000004128333 0.000000000403171 0.000000001033879 0.000000004184842 0.000000000056450 0.000000001082134 0.000000000354483 0.000000000138073 0.000000000755585 0.000000000293484 0.000000001209152 0.000000000915815 0.000000000147568 0.000000000758345 0.000000000973853 0.000000001655674 0.000000000460605 0.000000000635529 0.000000000670785 0.000000000608105 0.000000000557750 0.000000001307556 0.000000001332505 0.000000001110345 0.000000000711492 0.000000000910406 0.000000001307222 0.000000001054912 0.000000001171332 0.000000000168470 0.000000003017372 0.000000000285661 0.000000000939337 0.000000001306891 0.000000000842019 0.000000000247159 0.000000000345282 0.000000001373272 0.000000000318643 0.000000000547602 0.000000000927786 0.000000001535100 0.000000000686853 0.000000000592918 0.000000000228362 0.000000000882967 0.000000000126556 0.000000000326182 0.000000000812982 0.000000000500761 0.000000001337051 0.000000001367024 0.000000000975368 0.000000000121192 0.000000001465183 0.000000000839980 0.000000000459450 0.000000001436521 0.000000001695919 0.000000000754007 0.000000001005464 0.000000000957213 0.000000000616494 0.000000000459949 0.000000002456124 0.000000003603430 0.000000001018347 0.000000001112640 0.000000000130143 0.000000000335937 0.000000001443996 
				</DataArray>
				<DataArray type="Float64" Name="v" format="ascii">