<VTKFile type="UnstructuredGrid" version="1.0" byte_order="LittleEndian" header_type="UInt64">
	<UnstructuredGrid>
		<FieldData>
			<DataArray type="Float64" Name="TimeValue" NumberOfTuples="1" format="ascii"> 0.09 </DataArray>
		</FieldData>
		<Piece NumberOfPoints="610" NumberOfCells="1134">
			<PointData>
				<DataArray type="Float64" Name="pressure" format="ascii">
					10594.531741255032102 0.000000000000000 0.000000000000000 11320.311115754113416 0.000000898186386 -0.000000736383381 -0.000000079246590 -0.000000314894545 -0.000000289675050 -0.000000105063173 -0.000000350262015 -0.000000214209297 -0.000000193328366 -0.000000006033595 -0.000000748370030 -0.000000087374693 -0.000000234700514 -0.000000224122717 -0.000000259043480 -0.000000053484702 -0.000000266012535 -0.000000104000201 -0.000000738625131 -0.000000145658382 0.000000000000000 0.000000000000000 0.000000000000000 0.000000000000000 0.000000000000000 0.000000000000000 0.000000000000000 0.000000000000000 0.000000000000000 0.000000000000000 0.000000000000000 0.000000000000000 0.000000000000000 0.000000000000000 0.000000000000000 0.000000000000000 0.000000000000000 0.000000000000000 0.000000000000000 0.000000000000000 0.000000153671864 0.000000736339990 0.000000077982515 0.000000249671133 0.000000056454962 0.000000256286871 0.000000224122718 0.000000234700514 0.000000087374693 0.000000748370029 0.000000006033595 0.000000193385105 0.000000213937555 0.000000347541179 0.000000093820277 0.000000304627181 0.000000354780613 0.000000095635445 0.000000738305778 0.000000789375312 4978.255483462334269 15242.237459832706008 4486.993912129401906 8671.624610777997077 4474.600651474297592 7984.218323417105239 7462.683620709510251 7410.824351500517878 4694.622720120306440 15958.792109661506402 3986.409266570854925 8333.395504134859948 8467.475334329876205 8123.433247393004422 5587.311882085443358 9783.100892044814827 8228.772653891175651 4799.067305088815374 15311.046138411655193 5065.109918455211300 0.000000072832340 0.000000027766556 -0.000000034595416 -0.000000076301517 0.000000074923235 -0.000000068315351 0.000000004667791 0.000000102592513 -0.000000085285648 -0.000000024922224 -0.000000133282667 -0.000000003870509 0.000000138853082 0.000000051141836 -0.000000040879282 -0.000000075656395 0.000000005619949 -0.000000084581868 0.000000078874361 -0.000000030920834 0.000000071277071 0.000000067871402 -0.000000063213758 0.000000106076249 0.000000128646129 -0.000000027154985 -0.000000051459933 -0.000000083415613 0.000000070096685 0.000000077747423 -0.000000082704785 -0.000000028932887 -0.000000126928134 -0.000000098134454 0.000000194579495 0.000000172852868 -0.000000055729073 0.000000016171635 -0.000000114834237 -0.000000106747277 0.000000029853211 -0.000000096330843 0.000000119082147 0.000000026691290 -0.000000107433697 0.000000059012228 0.000000090912245 -0.000000013147913 -0.000000106286164 0.000000015758606 -0.000000107501224 0.000000190679191 -0.000000076540351 0.000000111524301 0.000000070854831 0.000000186544440 0.000000097541308 0.000000027604675 0.000000036385020 -0.000000029237967 0.000000153153538 0.000000091342498 -0.000000049089508 -0.000000073613667 -0.000000092298775 0.000000040484456 0.000000150829218 -0.000000018889164 -0.000000145466008 0.000000043699013 0.000000120288002 -0.000000041171904 -0.000000098235909 0.000000067970470 0.000000041836714 -0.000000097812133 -0.000000068048614 0.000000005353429 0.000000027945371 0.000000138823378 -0.000000120156352 0.000009488767515 0.000000124547848 -0.000000034014388 0.000000181415906 -0.000000162044470 -0.000000053305228 -0.000000018023109 -0.000000021828625 -0.000000087326806 0.000000059859172 0.000000153519115 -0.000000099688946 0.000000078669521 0.000000120038159 -0.000000116628004 -0.000000094223910 0.000000409724190 0.000000378075132 -0.000000081085870 0.000000052673210 0.000001190886896 0.000000012098095 0.000000125436028 -0.000000012098096 -0.000000024082882 0.000000118688521 0.000000129633253 0.000000220759129 0.000000095085190 0.000000052052312 -0.000000047811576 -0.000000077070186 0.000000515510477 0.000000076493979 0.000000078347479 0.000000076644192 -0.000000019962560 -0.000000106584977 0.000000128874578 -0.000000136730291 0.000000131941387 0.000000026478996 -0.000000029724545 -0.000000085720648 0.000000086055100 -0.000000063096371 0.000000032085233 0.000000065665295 -0.000000024656803 -0.000000056986663 -0.000000078048473 0.000000049952579 0.000000076008829 0.000000061204710 0.000000061121269 -0.000000061457870 0.000000093703268 -0.000000097387094 -0.000000043019487 0.000000072007143 0.000000065302387 -0.000000065289819 0.000003650165863 0.000000071841360 -0.000000084388666 -0.000000048963558 -0.000000007288193 0.000000107172962 -0.000000111509643 0.000000101882444 0.000000092172721 0.000000118999961 0.000011055786987 -0.000000091103390 -0.000000120673199 -0.000000063310754 0.000000010679340 -0.000000129579567 -0.000000064202366 -0.000000041854134 0.000000153359684 -0.000000166947477 0.000000063245628 0.000000164912317 -0.000000129507991 0.000000110746330 -0.000000093265139 -0.000000050165940 -0.000000094190158 -0.000000027917819 -0.000000186088891 -0.000000117015191 0.000000175967755 -0.000000189039391 0.000000185059812 -0.000000037213863 -0.000000074842814 0.000000058617756 0.000000138805791 0.000000131504038 -0.000000119119283 -0.000000324067131 0.000000127093417 -0.000000189289653 -0.000000111957474 -0.000000082934033 -0.000000008973770 -0.000000149912291 -0.000000153861859 -0.000000197814572 -0.000000127762776 0.000000196648743 0.000010465266722 0.000000107583390 0.000000004871865 -0.000000152538533 -0.000000117927808 0.000000117927808 -0.000000066085390 0.000000117814956 -0.000000201114772 0.000000005205408 0.000000004718406 -0.000000001439586 -0.000000002682845 -0.000000041572696 -0.000000107895412 -0.000000083497992 -0.000000051247183 -0.000000029688214 -0.000000116702015 0.000000047507599 -0.000000044523707 0.000000025555484 -0.000000093715404 -0.000000094510964 0.000002893472131 0.000000107885693 -0.000000033358211 -0.000000033498160 0.000000095287340 0.000000018550279 0.000004790740355 0.000009388362383 0.000000026839839 -0.000000018430629 -0.000000126906832 0.000000089523850 0.000000013547850 -0.000000129139335 0.000000159288204 0.000000044027089 -0.000000068942969 -0.000000141420286 -0.000000001681698 0.000000113872462 0.000000046879898 -0.000000030025007 -0.000000070982215 0.000000128993752 -0.000000144478737 -0.000000115321737 0.000000024232302 -0.000000074459937 0.000000026983003 0.000000098425106 0.000000036732047 0.000012865156972 0.000000195007734 -0.000000000000000 0.000007532158346 -0.000000195007734 0.000000048580910 0.000000007818055 -0.000000137278607 0.000000046111863 0.000000105120909 -0.000000072535954 0.000000043995729 -0.000000053109867 0.000000076885703 0.000000106581168 0.000000046819039 0.000005133447892 -0.000000047184915 0.000004202041040 -0.000000134934377 0.000000079131753 0.000006563896415 -0.000000058062967 0.000000056758103 0.000000089368441 0.000000088056242 -0.000000122477421 0.000000062632433 0.000000029732403 0.000000059589470 0.000000062872997 -0.000000051079665 0.000000064447121 0.000000034551713 0.000000092459936 0.000000155279806 0.000000119821263 0.000000072314176 0.000000088024416 0.000000148013227 -0.000000034282829 0.000000157400493 -0.000000155927718 -0.000000026860062 0.000000116740392 -0.000000008721007 0.000000039221241 -0.000000136781184 -0.000000110908244 -0.000000132739181 -0.000000137384460 0.000000018653202 -0.000000078864355 -0.000000092086305 -0.000000104084910 0.000000193755281 -0.000000017077032 -0.000000190440571 -0.000000096331320 0.000000120066788 -0.000000074544102 0.000000096026400 0.000000138270032 -0.000000025256421 0.000000077393378 0.000000130270519 0.000000107324975 -0.000000061079169 0.000000165824870 0.000000126291337 0.000000173492774 0.000000033007235 -0.000000022369931 -0.000000174706849 -0.000000060661955 0.000000205567535 0.000000070917011 0.000000143413216 -0.000000101990494 0.000010973022539 0.000000171890034 -0.000000173392197 -0.000000025958336 0.000000071362876 0.000000046277405 0.000000015121786 -0.000000015721134 -0.000000153503420 0.000000091167622 -0.000000081174362 0.000000086499544 -0.000000106343131 -0.000000069415652 0.000000037871685 -0.000000102191167 0.000000136724564 -0.000000102951195 -0.000000104042933 -0.000000260972059 0.000000050780760 -0.000000136873591 -0.000000109589113 0.000000054926028 -0.000000142341785 -0.000000072533365 -0.000000017929376 -0.000000186646218 -0.000000083354604 -0.000000024952842 -0.000000076290046 0.000000077791577 -0.000000078811454 -0.000000041503576 -0.000000073622762 -0.000000072133028 0.000000137566149 0.000000070392410 -0.000000080624298 -0.000000081810747 -0.000000075906306 -0.000000073257561 -0.000000022002489 -0.000000048841205 -0.000000046496339 0.000000086238878 -0.000000081865250 0.000000019389474 -0.000000147567110 -0.000000092657263 0.000000128643313 -0.000000107132554 -0.000000079300669 0.000000053011740 0.000000059312857 0.000000079740522 0.000000094463457 0.000000107734225 -0.000000040400042 0.000000042386905 -0.000000028663166 0.000000075599008 0.000000115093444 -0.000000129156053 0.000000200981445 0.000000112127406 0.000000079649888 0.000000141030343 -0.000000026869930 0.000000036124130 0.000000152753764 0.000000149254733 0.000000004930537 -0.000000084116374 -0.000000055760492 -0.000000064668359 -0.000000027853066 0.000000029639207 0.000000127381984 -0.000000095946213 0.000000169595139 0.000001184630927 0.000000875134718 -0.000000034639928 0.000000058741920 -0.000000069023001 0.000000065806754 -0.000000065275022 -0.000000136121429 0.000000086570741 -0.000000110860584 0.000000003013108 0.000000143228334 0.000000005055713 -0.000000092737918 0.000000458357300 -0.000000099580709 -0.000000100780142 0.000000072256647 0.000000067196634 0.000000101613495 0.000000071699411 -0.000000023410428 -0.000000181369065 0.000000120427020 -0.000000001619427 -0.000000142690066 0.000000152659510 0.000000228648652 0.000000000000000 -0.000000230810387 0.000013782647460 -0.000000011516909 0.000000055783813 -0.000000057078236 0.000000188896113 -0.000000114887039 0.000020561723266 0.000019254947800 0.000000329024819 0.000000000000000 -0.000000126876637 0.000000116545350 -0.000000122872319 0.000000140992721 -0.000000080013992 -0.000000071824157 -0.000000169445305 0.000009910683016 0.000000092865293 -0.000000243655260 0.000015237174455 0.000000000000000 0.000000243413190 -0.000000028908233 0.000000191944545 -0.000000194328033 -0.000000164108942 0.000000317057180 0.000000137642147 -0.000000064420301 -0.000000137011129 -0.000000166855933 0.000000164976922 0.000000229160855 0.000000079179976 -0.000000193030362 0.000000193429020 -0.000000035514381 0.000000202749707 -0.000000086916200 -0.000000132672652 0.000000130683935 -0.000000127821126 0.000000116501115 0.000000074248223 -0.000000060901721 0.000000212390261 0.000000159872076 0.000000339135271 -0.000000329179494 0.000000204889450 0.000000005846531 -0.000000192049869 0.000000288325948 0.000000205731480 -0.000000164187971 0.000000048054953 -0.000000043103223 -0.000000261871437 -0.000000010714336 0.000000016173094 -0.000000229767773 -0.000000135929475 -0.000000006055353 -0.000000004742703 -0.000000208467299 -0.000000209811739 -0.000000175884998 0.000000121217147 0.000000009673046 -0.000000100177352 0.000000534001089 -0.000000009671645 0.000000068952191 -0.000000093452918 -0.000000012400561 0.000000055880767 -0.000000060846030 0.000000082461949 -0.000000064222534 0.000000126215205 -0.000000061573832 0.000000139150432 0.000000005533448 -0.000000002839356 0.000000128417672 0.000000019372782 -0.000000074924922 
				</DataArray>
				<DataArray type="Float64" Name="u" format="ascii">
					-0.000000000000002 0.000000000000001 0.000000000000001 -0.000000000000001 -0.000000003232435 -0.000000000186848 0.000000000813807 0.000000001100369 0.000000001184585 0.000000001182467 0.000000001151708 0.000000001101913 0.000000001041557 0.000000000972452 0.000000000898986 0.000000000819194 0.000000000736205 0.000000000649509 0.000000000560323 0.000000000469215 0.000000000377023 0.000000000283554 0.000000000189415 0.000000000094760 0.000000000000000 0.000000000000000 0.000000000000002 0.000000000000000 -0.000000000000001 0.000000000000001 0.000000000000000 -0.000000000000000 -0.000000000000001 0.000000000000003 -0.000000000000003 0.000000000000004 0.000000000000000 -0.000000000000002 0.000000000000001 0.000000000000000 -0.000000000000002 0.000000000000001 0.000000000000003 -0.000000000000001 0.000000000075873 0.000000000151792 0.000000000227915 0.000000000304321 0.000000000381411 0.000000000459133 0.000000000538300 0.000000000619449 0.000000000704331 0.000000000792938 0.000000000889985 0.000000000994623 0.000000001117520 0.000000001264720 0.000000001464279 0.000000001723876 0.000000002154687 0.000000002994477 0.000000004628095 0.000000008552509 -0.000000000000000 0.000000000000000 -0.000000000000004 0.000000000000001 0.000000000000004 -0.000000000000007 0.000000000000001 -0.000000000000000 -0.000000000000000 0.000000000000000 -0.000000000000000 0.000000000000002 0.000000000000001 -0.000000000000000 0.000000000000002 0.000000000000001 -0.000000000000001 0.000000000000000 -0.000000000000000 0.000000000000001 0.000000001475324 0.000000000354745 0.000000000411075 0.000000000730757 0.000000000616788 0.000000001370273 0.000000001062927 0.000000000390416 0.000000000264846 0.000000000241390 0.000000001565006 0.000000000629208 0.000000000554036 0.000000000813014 0.000000001807637 0.000000002250630 0.000000000838647 0.000000000827683 0.000000000639061 0.000000000235904 0.000000000813697 0.000000000155399 0.000000000588244 0.000000000173078 0.000000000888525 0.000000000919708 0.000000000211660 0.000000000863521 0.000000001750787 0.000000001156761 0.000000001202569 0.000000000221112 0.000000000153398 0.000000002272400 0.000000001178860 0.000000000820372 0.000000000993222 0.000000000364510 0.000000000956946 0.000000001398982 0.000000000337049 0.000000000898855 0.000000000653288 0.000000001224099 0.000000000845224 0.000000002104386 0.000000000703203 0.000000000636163 0.000000000116516 0.000000000514187 0.000000000517405 0.000000000807897 0.000000001238945 0.000000000539277 0.000000000676245 0.000000000832816 0.000000001048628 0.000000000363191 0.000000001464818 0.000000001119034 0.000000000916769 0.000000002815124 0.000000000916163 0.000000000594275 0.000000000700355 0.000000000579868 0.000000000207446 0.000000001172960 0.000000000729958 0.000000000519251 0.000000001307812 0.000000001943576 0.000000000869481 0.000000000815483 0.000000000454882 0.000000001190238 0.000000001572088 0.000000000200788 0.000000000459455 0.000000001070134 0.000000001274653 -0.000000000131346 0.000000001178822 0.000000000470579 0.000000001159218 0.000000000467221 0.000000000157907 0.000000000663787 0.000000000253739 0.000000000512440 0.000000001785718 0.000000000841305 0.000000001428377 0.000000000697598 0.000000000770231 0.000000001670533 0.000000000702101 0.000000004103252 0.000000000412148 0.000000000092633 0.000000000116677 0.000000001210905 0.000000000710354 0.000000000101264 0.000000000842788 0.000000000315639 0.000000001348293 0.000000000250870 0.000000000719651 0.000000001804303 0.000000000536496 0.000000000400493 0.000000001328130 0.000000004187694 0.000000001226592 0.000000000113675 0.000000000800406 0.000000001004487 0.000000001746905 0.000000000323871 0.000000000433458 0.000000000832215 0.000000001114623 0.000000000195421 0.000000000302196 0.000000001034933 0.000000001152460 0.000000000413346 0.000000001297710 0.000000001340417 0.000000000626891 0.000000000636257 0.000000001417187 0.000000001064035 0.000000001168360 0.000000002970991 0.000000000961495 0.000000000233626 0.000000000586205 0.000000001013297 0.000000001651634 0.000000001034855 0.000000000950885 0.000000004365702 0.000000000087183 0.000000000939261 0.000000000369404 0.000000000884274 0.000000000263240 0.000000000079371 0.000000000151466 0.000000002315616 0.000000000062064 0.000000001163190 0.000000000189615 0.000000000687840 0.000000000688034 0.000000001028387 0.000000000905100 0.000000001490839 0.000000000842258 0.000000000170358 0.000000000682095 0.000000000547496 0.000000001549180 0.000000001356798 0.000000001238035 0.000000001110601 0.000000000770191 0.000000001931419 0.000000000381373 0.000000002739330 0.000000001019174 0.000000000810279 0.000000000927217 0.000000000408102 0.000000001177516 0.000000000530230 0.000000001684839 0.000000000694833 0.000000000833924 0.000000000299016 0.000000000816127 0.000000000515049 0.000000000857741 0.000000000965960 0.000000000728103 0.000000000873843 0.000000002188207 0.000000001136415 0.000000000615579 0.000000000054310 0.000000000504696 0.000000000231356 0.000000000649830 0.000000000635408 0.000000000816973 0.000000000907288 0.000000000787959 0.000000000071724 0.000000001797479 0.000000001616497 0.000000000233555 0.000000000587049 0.000000000305526 0.000000001377538 0.000000001361232 0.000000000853927 0.000000000463893 0.000000001249055 0.000000001589646 0.000000000496256 0.000000000669127 0.000000000518967 0.000000001220702 0.000000000078280 0.000000000698560 0.000000000787036 0.000000000577284 0.000000000178348 0.000000001014354 0.000000000199819 0.000000000549253 0.000000000159390 -0.000000001273888 0.000000000069371 0.000000000445100 0.000000001121134 0.000000001257111 0.000000000401842 0.000000001062693 0.000000001454511 0.000000000298750 0.000000000803205 0.000000000770229 0.000000001184206 0.000000000635088 0.000000000743956 0.000000000462753 0.000000001618265 0.000000000387261 0.000000001081305 0.000000000621787 0.000000000833797 0.000000001967780 0.000000000965215 0.000000000232683 0.000000000823746 0.000000000672809 0.000000000771932 0.000000000064180 0.000000003812831 0.000000000647951 0.000000001511588 0.000000001326326 0.000000000800954 0.000000001432282 0.000000000066115 0.000000002037713 0.000000000336413 0.000000001104308 0.000000002403481 0.000000000083781 0.000000001137545 0.000000003709886 0.000000001142928 -0.000000001018317 0.000000000078505 0.000000001304783 0.000000002687896 0.000000000276216 0.000000001278479 0.000000000745037 0.000000000903307 0.000000000863101 0.000000001130148 0.000000001130506 0.000000000723429 0.000000001217013 0.000000000715518 0.000000001247427 0.000000000516770 0.000000000610344 0.000000001054016 0.000000000956362 0.000000000706355 0.000000000994745 0.000000000286336 0.000000002338073 0.000000001090448 0.000000000819829 0.000000000292637 0.000000000929420 0.000000000906828 0.000000001272534 0.000000000225897 0.000000000521535 0.000000001493333 0.000000000647046 0.000000000344896 0.000000000639780 0.000000000179019 0.000000000569417 0.000000000222841 0.000000001348953 0.000000000514784 0.000000000769320 0.000000002608078 0.000000000878507 0.000000001184132 0.000000000309337 0.000000000887870 0.000000001972780 0.000000001243119 0.000000001442095 0.000000002080561 0.000000001502843 0.000000000298369 0.000000002310948 0.000000001222751 0.000000000440515 0.000000000170737 0.000000000434312 0.000000000402443 0.000000002282786 0.000000000891832 0.000000001903959 0.000000000376506 0.000000000738274 0.000000000580182 0.000000000260597 0.000000001411512 0.000000001298607 0.000000000946977 0.000000001482707 0.000000002460677 0.000000000735183 0.000000000370558 0.000000000472552 0.000000000432892 0.000000001743623 0.000000001006399 0.000000000289340 0.000000000657349 0.000000001316652 0.000000000854258 0.000000001428122 0.000000000128967 0.000000001167345 0.000000000224302 0.000000000806774 0.000000000561811 0.000000001303485 0.000000000842497 0.000000000459589 0.000000000339704 0.000000000693330 0.000000000268433 0.000000000292823 0.000000000530734 0.000000001405957 0.000000003124796 0.000000001073480 0.000000001700255 0.000000000901243 0.000000000197321 0.000000002063889 0.000000000852873 0.000000000401219 0.000000000546633 0.000000001546109 0.000000000725045 0.000000000420803 0.000000000320686 0.000000001130739 0.000000000903460 0.000000000808581 0.000000001108995 0.000000000761021 0.000000001408194 0.000000001090306 0.000000001095385 0.000000000767552 0.000000000950843 0.000000000580015 0.000000000767320 0.000000000625067 0.000000000140942 0.000000002268690 0.000000001603800 0.000000001641612 0.000000000403298 0.000000001440885 0.000000000515473 0.000000000536738 0.000000002325289 0.000000000592293 0.000000000413590 0.000000000944449 0.000000000953375 0.000000000554943 0.000000000939431 0.000000001248026 0.000000000216655 0.000000001611446 0.000000001841578 0.000000000117954 0.000000000086766 0.000000000584884 0.000000000904641 0.000000000858185 0.000000002055046 0.000000000973821 0.000000000466209 0.000000000351598 0.000000001451638 0.000000000098725 0.000000000461639 0.000000003057592 0.000000001297321 0.000000000132958 0.000000000370859 -0.000000000108073 0.000000000859652 0.000000001462523 0.000000000993681 0.000000001107854 0.000000000999594 0.000000000771758 0.000000000472137 0.000000000070270 0.000000001200491 0.000000001542222 0.000000001882158 0.000000000609477 0.000000001222834 0.000000000064089 0.000000001537964 0.000000002884424 0.000000000695673 0.000000000769444 0.000000001710770 0.000000000343102 0.000000000763218 0.000000000431675 0.000000002776907 0.000000000056464 0.000000000047076 0.000000000701182 0.000000000563312 0.000000000822921 0.000000000066894 0.000000000325188 0.000000001809347 0.000000000049615 0.000000004130380 0.000000000402708 0.000000001044044 0.000000004186727 0.000000000056486 0.000000001079667 0.000000000355028 0.000000000138969 0.000000000755537 0.000000000293194 0.000000001221670 0.000000000914478 0.000000000147806 0.000000000764750 0.000000000973401 0.000000001657347 0.000000000462221 0.000000000638432 0.000000000673418 0.000000000608597 0.000000000558141 0.000000001307596 0.000000001332379 0.000000001111433 0.000000000716091 0.000000000910979 0.000000001308250 0.000000001064970 0.000000001169003 0.000000000168537 0.000000003018868 0.000000000285464 0.000000000944883 0.000000001306091 0.000000000845668 0.000000000248802 0.000000000346593 0.000000001374527 0.000000000319584 0.000000000550612 0.000000000929735 0.000000001535395 0.000000000687135 0.000000000595031 0.000000000229154 0.000000000884661 0.000000000127103 0.000000000327443 0.000000000815063 0.000000000503536 0.000000001338574 0.000000001367662 0.000000000973724 0.000000000121345 0.000000001465991 0.000000000847449 0.000000000459586 0.000000001436014 0.000000001697067 0.000000000759566 0.000000001004493 0.000000000964769 0.000000000616016 0.000000000463092 0.000000002456624 0.000000003605171 0.000000001028082 0.000000001110359 0.000000000130220 0.000000000335825 0.000000001443042 
				</DataArray>
				<DataArray type="Float64" Name="v" format="ascii">