<VTKFile type="UnstructuredGrid" version="1.0" byte_order="LittleEndian" header_type="UInt64">
	<UnstructuredGrid>
		<FieldData>
			<DataArray type="Float64" Name="TimeValue" NumberOfTuples="1" format="ascii"> 0.08 </DataArray>
		</FieldData>
		<Piece NumberOfPoints="610" NumberOfCells="1134">
			<PointData>
				<DataArray type="Float64" Name="pressure" format="ascii">
					10584.175405578063874 0.000000000000000 0.000000000000000 11309.245318366114589 0.000000896846956 -0.000000735663537 -0.000000079246509 -0.000000314892417 -0.000000289666652 -0.000000105063043 -0.000000350257165 -0.000000214207724 -0.000000193327107 -0.000000006033592 -0.000000747638470 -0.000000087374616 -0.000000234695291 -0.000000224119875 -0.000000259040001 -0.000000053484678 -0.000000266011497 -0.000000103999897 -0.000000737903095 -0.000000145658335 0.000000000000000 0.000000000000000 0.000000000000000 0.000000000000000 0.000000000000000 0.000000000000000 0.000000000000000 0.000000000000000 0.000000000000000 0.000000000000000 0.000000000000000 0.000000000000000 0.000000000000000 0.000000000000000 0.000000000000000 0.000000000000000 0.000000000000000 0.000000000000000 0.000000000000000 0.000000000000000 0.000000153671794 0.000000735620189 0.000000077982411 0.000000249670612 0.000000056454942 0.000000256283505 0.000000224119876 0.000000234695290 0.000000087374616 0.000000747638468 0.000000006033592 0.000000193383844 0.000000213935993 0.000000347536148 0.000000093820201 0.000000304617615 0.000000354777881 0.000000095635389 0.000000737584055 0.000000788553942 4978.254669601064052 15227.337912609595151 4486.989443778466921 8671.578902790457505 4474.599556399895846 7984.148596548926434 7462.609668736971798 7410.702330973024800 4694.618542528087346 15943.192118063781891 3986.407654197888860 8333.341408467600559 8467.414616022411792 8123.314957178620716 5587.306762511952002 9782.798964356683427 8228.695682988050976 4799.053410189865644 15296.079329532090924 5065.108415245892502 0.000000072832338 0.000000027766555 -0.000000034595415 -0.000000076301513 0.000000074923233 -0.000000068315348 0.000000004667791 0.000000102592511 -0.000000085285644 -0.000000024922223 -0.000000133282664 -0.000000003870508 0.000000138853079 0.000000051141833 -0.000000040879281 -0.000000075656394 0.000000005619949 -0.000000084581866 0.000000078874360 -0.000000030920833 0.000000071277060 0.000000067871401 -0.000000063213757 0.000000106076246 0.000000128646123 -0.000000027154984 -0.000000051459932 -0.000000083415610 0.000000070096679 0.000000077747420 -0.000000082704782 -0.000000028932886 -0.000000126928129 -0.000000098134438 0.000000194579465 0.000000172852836 -0.000000055729052 0.000000016171632 -0.000000114834232 -0.000000106747273 0.000000029853211 -0.000000096330841 0.000000119082140 0.000000026691287 -0.000000107433694 0.000000059012226 0.000000090912244 -0.000000013147912 -0.000000106286160 0.000000015758604 -0.000000107501219 0.000000190679155 -0.000000076540350 0.000000111524299 0.000000070854829 0.000000186544416 0.000000097541307 0.000000027604674 0.000000036385017 -0.000000029237967 0.000000153153532 0.000000091342495 -0.000000049089506 -0.000000073613666 -0.000000092298774 0.000000040484455 0.000000150829145 -0.000000018889164 -0.000000145466004 0.000000043699008 0.000000120287998 -0.000000041171901 -0.000000098235905 0.000000067970468 0.000000041836712 -0.000000097812131 -0.000000068048613 0.000000005353428 0.000000027945370 0.000000138823368 -0.000000120156322 0.000009488542639 0.000000124547813 -0.000000034014383 0.000000181415773 -0.000000162044382 -0.000000053305226 -0.000000018023109 -0.000000021828625 -0.000000087326800 0.000000059859168 0.000000153519089 -0.000000099688944 0.000000078669519 0.000000120038154 -0.000000116628001 -0.000000094223908 0.000000409723965 0.000000378074939 -0.000000081085868 0.000000052673209 0.000001190884790 0.000000012098094 0.000000125436024 -0.000000012098095 -0.000000024082881 0.000000118688517 0.000000129633237 0.000000220759092 0.000000095085188 0.000000052052310 -0.000000047811574 -0.000000077070184 0.000000515509631 0.000000076493978 0.000000078347477 0.000000076644191 -0.000000019962560 -0.000000106584963 0.000000128874562 -0.000000136730264 0.000000131941350 0.000000026478996 -0.000000029724545 -0.000000085720646 0.000000086055098 -0.000000063096368 0.000000032085225 0.000000065665293 -0.000000024656802 -0.000000056986662 -0.000000078048472 0.000000049952578 0.000000076008828 0.000000061204708 0.000000061121267 -0.000000061457868 0.000000093703266 -0.000000097387092 -0.000000043019486 0.000000072007139 0.000000065302386 -0.000000065289819 0.000003650139471 0.000000071841358 -0.000000084388655 -0.000000048963557 -0.000000007288192 0.000000107172960 -0.000000111509620 0.000000101882424 0.000000092172710 0.000000118999948 0.000011042963191 -0.000000091103380 -0.000000120673196 -0.000000063310752 0.000000010679285 -0.000000129579550 -0.000000064202361 -0.000000041854128 0.000000153359660 -0.000000166947406 0.000000063245621 0.000000164912298 -0.000000129507986 0.000000110746328 -0.000000093265137 -0.000000050165937 -0.000000094190154 -0.000000027917819 -0.000000186088867 -0.000000117015188 0.000000175967738 -0.000000189039364 0.000000185059794 -0.000000037213859 -0.000000074842812 0.000000058617754 0.000000138805746 0.000000131504029 -0.000000119119265 -0.000000324066166 0.000000127093389 -0.000000189289612 -0.000000111957467 -0.000000082934025 -0.000000008973770 -0.000000149912282 -0.000000153861853 -0.000000197814522 -0.000000127762753 0.000000196648694 0.000010465050505 0.000000107583379 0.000000004871865 -0.000000152538515 -0.000000117927804 0.000000117927804 -0.000000066085388 0.000000117814930 -0.000000201114739 0.000000005205406 0.000000004718405 -0.000000001439585 -0.000000002682844 -0.000000041572695 -0.000000107895410 -0.000000083497990 -0.000000051247182 -0.000000029688213 -0.000000116702012 0.000000047507598 -0.000000044523706 0.000000025555483 -0.000000093715402 -0.000000094510962 0.000002893414422 0.000000107885690 -0.000000033358210 -0.000000033498159 0.000000095287334 0.000000018550278 0.000004790683659 0.000009388292516 0.000000026839839 -0.000000018430628 -0.000000126906827 0.000000089523848 0.000000013547850 -0.000000129139329 0.000000159288176 0.000000044027088 -0.000000068942967 -0.000000141420273 -0.000000001681698 0.000000113872458 0.000000046879897 -0.000000030025007 -0.000000070982209 0.000000128993746 -0.000000144478717 -0.000000115321724 0.000000024232300 -0.000000074459930 0.000000026983002 0.000000098425105 0.000000036732034 0.000012851365215 0.000000195007673 -0.000000000000000 0.000007531971532 -0.000000195007673 0.000000048580908 0.000000007818055 -0.000000137278598 0.000000046111862 0.000000105120906 -0.000000072535952 0.000000043995728 -0.000000053109865 0.000000076885701 0.000000106581164 0.000000046819037 0.000005133363126 -0.000000047184913 0.000004201991686 -0.000000134934369 0.000000079131748 0.000006563848198 -0.000000058062965 0.000000056758100 0.000000089368439 0.000000088056239 -0.000000122477417 0.000000062632431 0.000000029732401 0.000000059589467 0.000000062872996 -0.000000051079664 0.000000064447118 0.000000034551712 0.000000092459934 0.000000155279797 0.000000119821259 0.000000072314173 0.000000088024411 0.000000148013212 -0.000000034282819 0.000000157400451 -0.000000155927662 -0.000000026860049 0.000000116740383 -0.000000008721007 0.000000039221240 -0.000000136781178 -0.000000110908242 -0.000000132739175 -0.000000137384452 0.000000018653199 -0.000000078864341 -0.000000092086303 -0.000000104084907 0.000000193755249 -0.000000017077029 -0.000000190440542 -0.000000096331317 0.000000120066783 -0.000000074544098 0.000000096026382 0.000000138270005 -0.000000025256419 0.000000077393375 0.000000130270476 0.000000107324972 -0.000000061079162 0.000000165824841 0.000000126291333 0.000000173492758 0.000000033007230 -0.000000022369930 -0.000000174706835 -0.000000060661954 0.000000205567473 0.000000070917008 0.000000143413205 -0.000000101990473 0.000010960384172 0.000000171890022 -0.000000173392186 -0.000000025958336 0.000000071362875 0.000000046277403 0.000000015121786 -0.000000015721133 -0.000000153503386 0.000000091167621 -0.000000081174361 0.000000086499542 -0.000000106343129 -0.000000069415650 0.000000037871685 -0.000000102191165 0.000000136724558 -0.000000102951191 -0.000000104042930 -0.000000260971771 0.000000050780759 -0.000000136873588 -0.000000109589110 0.000000054926000 -0.000000142341775 -0.000000072533364 -0.000000017929375 -0.000000186646206 -0.000000083354600 -0.000000024952842 -0.000000076290044 0.000000077791576 -0.000000078811453 -0.000000041503576 -0.000000073622761 -0.000000072133026 0.000000137566123 0.000000070392407 -0.000000080624296 -0.000000081810745 -0.000000075906305 -0.000000073257560 -0.000000022002489 -0.000000048841204 -0.000000046496336 0.000000086238876 -0.000000081865248 0.000000019389473 -0.000000147567102 -0.000000092657258 0.000000128643304 -0.000000107132550 -0.000000079300667 0.000000053011738 0.000000059312856 0.000000079740520 0.000000094463455 0.000000107734222 -0.000000040400042 0.000000042386904 -0.000000028663164 0.000000075599005 0.000000115093436 -0.000000129156044 0.000000200981376 0.000000112127366 0.000000079649886 0.000000141030332 -0.000000026869926 0.000000036124129 0.000000152753744 0.000000149254718 0.000000004930537 -0.000000084116372 -0.000000055760490 -0.000000064668358 -0.000000027853065 0.000000029639206 0.000000127381980 -0.000000095946211 0.000000169595131 0.000001184622756 0.000000875133167 -0.000000034639928 0.000000058741920 -0.000000069022999 0.000000065806752 -0.000000065275020 -0.000000136121427 0.000000086570740 -0.000000110860577 0.000000003013107 0.000000143228330 0.000000005055713 -0.000000092737915 0.000000458357099 -0.000000099580707 -0.000000100780128 0.000000072256646 0.000000067196633 0.000000101613492 0.000000071699409 -0.000000023410427 -0.000000181369015 0.000000120427011 -0.000000001619427 -0.000000142690059 0.000000152659249 0.000000228648577 -0.000000000000000 -0.000000230810309 0.000013782026974 -0.000000011516909 0.000000055783811 -0.000000057078231 0.000000188896088 -0.000000114887023 0.000020544417412 0.000019240219660 0.000000329024082 -0.000000000000000 -0.000000126876608 0.000000116545335 -0.000000122872314 0.000000140992716 -0.000000080013987 -0.000000071824154 -0.000000169445290 0.000009910395282 0.000000092865284 -0.000000243655201 0.000015236919661 0.000000000000000 0.000000243413131 -0.000000028908232 0.000000191944506 -0.000000194327992 -0.000000164108908 0.000000317056430 0.000000137642132 -0.000000064420295 -0.000000137011114 -0.000000166855887 0.000000164976904 0.000000229160765 0.000000079179965 -0.000000193030320 0.000000193428992 -0.000000035514378 0.000000202749692 -0.000000086916196 -0.000000132672633 0.000000130683931 -0.000000127821110 0.000000116501108 0.000000074248202 -0.000000060901704 0.000000212390203 0.000000159872009 0.000000339134364 -0.000000329178646 0.000000204888902 0.000000005846530 -0.000000192049371 0.000000288325654 0.000000205731447 -0.000000164187882 0.000000048054950 -0.000000043103223 -0.000000261871228 -0.000000010714331 0.000000016173091 -0.000000229767711 -0.000000135929457 -0.000000006055352 -0.000000004742702 -0.000000208467262 -0.000000209811562 -0.000000175884958 0.000000121217080 0.000000009673046 -0.000000100177350 0.000000534000548 -0.000000009671645 0.000000068952190 -0.000000093452916 -0.000000012400559 0.000000055880766 -0.000000060846029 0.000000082461947 -0.000000064222532 0.000000126215186 -0.000000061573828 0.000000139150428 0.000000005533447 -0.000000002839355 0.000000128417669 0.000000019372782 -0.000000074924920 
				</DataArray>
				<DataArray type="Float64" Name="u" format="ascii">
					-0.000000000000002 0.000000000000001 0.000000000000001 -0.000000000000001 -0.000000003228447 -0.000000000185002 0.000000000814803 0.000000001100986 0.000000001185008 0.000000001182786 0.000000001151956 0.000000001102114 0.000000001041723 0.000000000972591 0.000000000899102 0.000000000819291 0.000000000736286 0.000000000649577 0.000000000560379 0.000000000469260 0.000000000377057 0.000000000283580 0.000000000189432 0.000000000094768 0.000000000000000 0.000000000000000 0.000000000000002 0.000000000000000 -0.000000000000001 0.000000000000001 0.000000000000000 -0.000000000000000 -0.000000000000001 0.000000000000003 -0.000000000000003 0.000000000000004 0.000000000000000 -0.000000000000002 0.000000000000001 0.000000000000000 -0.000000000000002 0.000000000000001 0.000000000000003 -0.000000000000001 0.000000000075836 0.000000000151718 0.000000000227803 0.000000000304170 0.000000000381218 0.000000000458896 0.000000000538016 0.000000000619112 0.000000000703935 0.000000000792477 0.000000000889445 0.000000000993994 0.000000001116778 0.000000001263835 0.000000001463191 0.000000001722519 0.000000002152879 0.000000002991796 0.000000004623752 0.000000008544240 -0.000000000000000 0.000000000000000 -0.000000000000004 0.000000000000001 0.000000000000004 -0.000000000000007 0.000000000000001 -0.000000000000000 -0.000000000000000 0.000000000000000 -0.000000000000000 0.000000000000002 0.000000000000001 -0.000000000000000 0.000000000000002 0.000000000000001 -0.000000000000001 0.000000000000000 -0.000000000000000 0.000000000000001 0.000000001475373 0.000000000354766 0.000000000410883 0.000000000730490 0.000000000616798 0.000000001370234 0.000000001062972 0.000000000390296 0.000000000264868 0.000000000241390 0.000000001565025 0.000000000629206 0.000000000553895 0.000000000812971 0.000000001807602 0.000000002250613 0.000000000838309 0.000000000827750 0.000000000638756 0.000000000235873 0.000000000813468 0.000000000155329 0.000000000588061 0.000000000173027 0.000000000888387 0.000000000919349 0.000000000211640 0.000000000863334 0.000000001750785 0.000000001156008 0.000000001202767 0.000000000221126 0.000000000153398 0.000000002272371 0.000000001178935 0.000000000820009 0.000000000993324 0.000000000364497 0.000000000956857 0.000000001398917 0.000000000337009 0.000000000898909 0.000000000653017 0.000000001224060 0.000000000844917 0.000000002104384 0.000000000703233 0.000000000636222 0.000000000116490 0.000000000513927 0.000000000517351 0.000000000807841 0.000000001238975 0.000000000539254 0.000000000676045 0.000000000832810 0.000000001048528 0.000000000363118 0.000000001464767 0.000000001118360 0.000000000916855 0.000000002815128 0.000000000915706 0.000000000594168 0.000000000700218 0.000000000579786 0.000000000207433 0.000000001172870 0.000000000729584 0.000000000519293 0.000000001307817 0.000000001943553 0.000000000869507 0.000000000815239 0.000000000454819 0.000000001190176 0.000000001572033 0.000000000200803 0.000000000459278 0.000000001070021 0.000000001273765 -0.000000000131327 0.000000001179069 0.000000000470353 0.000000001159261 0.000000000467197 0.000000000157915 0.000000000663580 0.000000000253655 0.000000000512348 0.000000001785712 0.000000000841289 0.000000001428457 0.000000000697495 0.000000000770242 0.000000001670502 0.000000000702058 0.000000004102629 0.000000000411911 0.000000000092589 0.000000000116687 0.000000001210876 0.000000000709964 0.000000000101252 0.000000000842883 0.000000000315644 0.000000001348400 0.000000000250808 0.000000000719535 0.000000001804333 0.000000000536512 0.000000000400375 0.000000001327196 0.000000004187692 0.000000001226851 0.000000000113677 0.000000000800446 0.000000001004467 0.000000001746946 0.000000000323753 0.000000000433479 0.000000000831902 0.000000001114656 0.000000000195340 0.000000000302217 0.000000001034394 0.000000001152434 0.000000000413338 0.000000001297776 0.000000001340368 0.000000000626739 0.000000000636244 0.000000001417203 0.000000001063969 0.000000001168490 0.000000002970966 0.000000000960950 0.000000000233622 0.000000000585978 0.000000001013262 0.000000001651616 0.000000001035005 0.000000000950302 0.000000004365669 0.000000000087180 0.000000000939116 0.000000000369348 0.000000000884211 0.000000000263253 0.000000000079377 0.000000000151393 0.000000002313557 0.000000000062036 0.000000001163060 0.000000000189631 0.000000000687880 0.000000000687788 0.000000001028392 0.000000000904928 0.000000001490794 0.000000000842340 0.000000000170338 0.000000000681741 0.000000000547497 0.000000001549214 0.000000001356770 0.000000001238175 0.000000001110664 0.000000000769872 0.000000001931383 0.000000000381352 0.000000002739329 0.000000001018586 0.000000000810071 0.000000000927286 0.000000000408053 0.000000001177464 0.000000000530115 0.000000001684844 0.000000000694837 0.000000000833666 0.000000000298972 0.000000000816180 0.000000000514974 0.000000000857756 0.000000000965852 0.000000000728047 0.000000000873484 0.000000002188214 0.000000001136334 0.000000000615640 0.000000000054298 0.000000000504434 0.000000000231330 0.000000000649742 0.000000000635440 0.000000000816827 0.000000000907400 0.000000000787508 0.000000000071718 0.000000001797461 0.000000001616456 0.000000000233488 0.000000000586916 0.000000000305534 0.000000001377648 0.000000001361331 0.000000000853674 0.000000000463877 0.000000001249105 0.000000001589690 0.000000000496262 0.000000000669183 0.000000000518723 0.000000001220611 0.000000000078266 0.000000000698632 0.000000000787003 0.000000000576979 0.000000000178314 0.000000001014288 0.000000000199745 0.000000000549305 0.000000000159347 -0.000000001273937 0.000000000069352 0.000000000444875 0.000000001121096 0.000000001257101 0.000000000401745 0.000000001062609 0.000000001454463 0.000000000298619 0.000000000803178 0.000000000770116 0.000000001184112 0.000000000634868 0.000000000743882 0.000000000462605 0.000000001618289 0.000000000387289 0.000000001080704 0.000000000621809 0.000000000833529 0.000000001967792 0.000000000964897 0.000000000232579 0.000000000823575 0.000000000672795 0.000000000772017 0.000000000064171 0.000000003812769 0.000000000647599 0.000000001511536 0.000000001326258 0.000000000800655 0.000000001432280 0.000000000066089 0.000000002036018 0.000000000336443 0.000000001103633 0.000000002403472 0.000000000083781 0.000000001137749 0.000000003709842 0.000000001142170 -0.000000001018301 0.000000000078509 0.000000001305263 0.000000002687790 0.000000000276081 0.000000001278398 0.000000000745022 0.000000000903261 0.000000000863002 0.000000001130179 0.000000001130417 0.000000000723212 0.000000001217030 0.000000000715347 0.000000001247858 0.000000000516737 0.000000000610312 0.000000001053906 0.000000000956234 0.000000000706031 0.000000000994803 0.000000000286308 0.000000002338042 0.000000001090539 0.000000000819426 0.000000000292623 0.000000000929344 0.000000000906867 0.000000001272692 0.000000000225900 0.000000000521374 0.000000001493291 0.000000000646922 0.000000000344737 0.000000000639726 0.000000000178975 0.000000000569328 0.000000000222850 0.000000001349116 0.000000000514619 0.000000000769343 0.000000002608054 0.000000000878070 0.000000001184229 0.000000000309329 0.000000000887755 0.000000001972771 0.000000001243094 0.000000001442036 0.000000002080534 0.000000001502827 0.000000000298305 0.000000002310955 0.000000001221962 0.000000000440549 0.000000000170679 0.000000000434233 0.000000000402404 0.000000002282782 0.000000000891433 0.000000001904482 0.000000000376339 0.000000000738336 0.000000000579902 0.000000000260551 0.000000001410492 0.000000001298701 0.000000000946972 0.000000001482675 0.000000002460663 0.000000000735234 0.000000000370588 0.000000000472430 0.000000000432860 0.000000001743641 0.000000001006345 0.000000000289319 0.000000000657279 0.000000001316819 0.000000000854262 0.000000001428049 0.000000000128918 0.000000001167263 0.000000000224308 0.000000000806342 0.000000000561563 0.000000001303494 0.000000000842036 0.000000000459605 0.000000000339702 0.000000000693306 0.000000000268327 0.000000000292684 0.000000000530726 0.000000001405994 0.000000003124766 0.000000001073603 0.000000001700226 0.000000000900733 0.000000000197313 0.000000002063909 0.000000000852544 0.000000000401073 0.000000000546660 0.000000001546171 0.000000000724892 0.000000000420812 0.000000000320598 0.000000001130718 0.000000000903427 0.000000000808495 0.000000001108886 0.000000000761019 0.000000001408447 0.000000001090138 0.000000001095399 0.000000000767370 0.000000000950699 0.000000000579972 0.000000000767396 0.000000000624742 0.000000000140920 0.000000002268632 0.000000001603796 0.000000001641566 0.000000000403302 0.000000001440957 0.000000000515263 0.000000000536775 0.000000002325301 0.000000000592344 0.000000000413419 0.000000000944001 0.000000000953388 0.000000000554881 0.000000000939303 0.000000001247957 0.000000000216551 0.000000001611792 0.000000001840061 0.000000000117962 0.000000000086729 0.000000000584857 0.000000000904443 0.000000000858008 0.000000002055068 0.000000000973351 0.000000000466239 0.000000000351451 0.000000001450578 0.000000000098694 0.000000000461680 0.000000003057580 0.000000001297599 0.000000000132963 0.000000000370676 -0.000000000108154 0.000000000859450 0.000000001462466 0.000000000993712 0.000000001107850 0.000000000999460 0.000000000771515 0.000000000472091 0.000000000070270 0.000000001200495 0.000000001542174 0.000000001882162 0.000000000609215 0.000000001223172 0.000000000064091 0.000000001536804 0.000000002884409 0.000000000695690 0.000000000769214 0.000000001710813 0.000000000342993 0.000000000763074 0.000000000431316 0.000000002775263 0.000000000056469 0.000000000047053 0.000000000701248 0.000000000563028 0.000000000822745 0.000000000066897 0.000000000325028 0.000000001807899 0.000000000049598 0.000000004130349 0.000000000402745 0.000000001043374 0.000000004186696 0.000000000056485 0.000000001079845 0.000000000354998 0.000000000138911 0.000000000755542 0.000000000293218 0.000000001220843 0.000000000914579 0.000000000147793 0.000000000764331 0.000000000973447 0.000000001657281 0.000000000462121 0.000000000638249 0.000000000673254 0.000000000608575 0.000000000558125 0.000000001307616 0.000000001332409 0.000000001111383 0.000000000715794 0.000000000910958 0.000000001308208 0.000000001064308 0.000000001169173 0.000000000168535 0.000000003018842 0.000000000285482 0.000000000944525 0.000000001306157 0.000000000845439 0.000000000248696 0.000000000346511 0.000000001374473 0.000000000319527 0.000000000550420 0.000000000929627 0.000000001535402 0.000000000687129 0.000000000594901 0.000000000229105 0.000000000884570 0.000000000127068 0.000000000327366 0.000000000814940 0.000000000503358 0.000000001338504 0.000000001367646 0.000000000973846 0.000000000121337 0.000000001465971 0.000000000846959 0.000000000459585 0.000000001436069 0.000000001697030 0.000000000759204 0.000000001004572 0.000000000964275 0.000000000616057 0.000000000462888 0.000000002456626 0.000000003605141 0.000000001027441 0.000000001110525 0.000000000130217 0.000000000335838 0.000000001443124 
				</DataArray>
				<DataArray type="Float64" Name="v" format="ascii">