<VTKFile type="UnstructuredGrid" version="1.0" byte_order="LittleEndian" header_type="UInt64">
	<UnstructuredGrid>
		<FieldData>
			<DataArray type="Float64" Name="TimeValue" NumberOfTuples="1" format="ascii"> 0.13999999999999999 </DataArray>
		</FieldData>
		<Piece NumberOfPoints="610" NumberOfCells="1134">
			<PointData>
				<DataArray type="Float64" Name="pressure" format="ascii">
					10604.564441367230756 0.000000000000000 0.000000000000000 11331.031106889349758 0.000000899484060 -0.000000737080738 -0.000000079246614 -0.000000314895359 -0.000000289679125 -0.000000105063213 -0.000000350264095 -0.000000214209908 -0.000000193328845 -0.000000006033597 -0.000000749078740 -0.000000087374716 -0.000000234702937 -0.000000224123919 -0.000000259044963 -0.000000053484709 -0.000000266012901 -0.000000104000304 -0.000000739324612 -0.000000145658396 0.000000000000000 0.000000000000000 0.000000000000000 0.000000000000000 0.000000000000000 0.000000000000000 0.000000000000000 0.000000000000000 0.000000000000000 0.000000000000000 0.000000000000000 0.000000000000000 0.000000000000000 0.000000000000000 0.000000000000000 0.000000000000000 0.000000000000000 0.000000000000000 0.000000000000000 0.000000000000000 0.000000153671884 0.000000737037306 0.000000077982548 0.000000249671301 0.000000056454968 0.000000256288301 0.000000224123919 0.000000234702937 0.000000087374716 0.000000749078740 0.000000006033597 0.000000193385586 0.000000213938161 0.000000347543351 0.000000093820300 0.000000304631886 0.000000354781680 0.000000095635461 0.000000739004957 0.000000790171019 4978.255662213486175 15256.671396062765780 4486.995182183289216 8671.641347524777302 4474.600905915580370 7984.245994930330198 7462.713575650758685 7410.878085251622906 4694.623888084527607 15973.904601367603391 3986.409668815344503 8333.415975961333970 8467.498679942913441 8123.484284971584202 5587.313319549739390 9783.248827170347795 8228.803541238790785 4799.071940668291973 15325.545234370305479 5065.110277348457203 0.000000072832341 0.000000027766556 -0.000000034595416 -0.000000076301519 0.000000074923237 -0.000000068315353 0.000000004667791 0.000000102592515 -0.000000085285650 -0.000000024922225 -0.000000133282669 -0.000000003870509 0.000000138853084 0.000000051141837 -0.000000040879283 -0.000000075656396 0.000000005619950 -0.000000084581869 0.000000078874362 -0.000000030920834 0.000000071277074 0.000000067871403 -0.000000063213760 0.000000106076251 0.000000128646132 -0.000000027154985 -0.000000051459934 -0.000000083415614 0.000000070096687 0.000000077747424 -0.000000082704786 -0.000000028932888 -0.000000126928137 -0.000000098134460 0.000000194579503 0.000000172852877 -0.000000055729079 0.000000016171636 -0.000000114834240 -0.000000106747279 0.000000029853211 -0.000000096330844 0.000000119082150 0.000000026691290 -0.000000107433699 0.000000059012229 0.000000090912246 -0.000000013147914 -0.000000106286167 0.000000015758607 -0.000000107501226 0.000000190679201 -0.000000076540352 0.000000111524303 0.000000070854832 0.000000186544449 0.000000097541310 0.000000027604676 0.000000036385020 -0.000000029237967 0.000000153153541 0.000000091342499 -0.000000049089509 -0.000000073613669 -0.000000092298777 0.000000040484456 0.000000150829238 -0.000000018889164 -0.000000145466011 0.000000043699015 0.000000120288004 -0.000000041171906 -0.000000098235911 0.000000067970471 0.000000041836715 -0.000000097812135 -0.000000068048615 0.000000005353429 0.000000027945372 0.000000138823382 -0.000000120156360 0.000009488863376 0.000000124547858 -0.000000034014390 0.000000181415945 -0.000000162044496 -0.000000053305229 -0.000000018023109 -0.000000021828625 -0.000000087326808 0.000000059859174 0.000000153519123 -0.000000099688948 0.000000078669522 0.000000120038161 -0.000000116628005 -0.000000094223911 0.000000409724245 0.000000378075175 -0.000000081085871 0.000000052673210 0.000001190887488 0.000000012098096 0.000000125436030 -0.000000012098096 -0.000000024082883 0.000000118688524 0.000000129633259 0.000000220759139 0.000000095085192 0.000000052052313 -0.000000047811577 -0.000000077070187 0.000000515510716 0.000000076493980 0.000000078347480 0.000000076644194 -0.000000019962560 -0.000000106584981 0.000000128874583 -0.000000136730299 0.000000131941397 0.000000026478996 -0.000000029724546 -0.000000085720650 0.000000086055101 -0.000000063096373 0.000000032085235 0.000000065665296 -0.000000024656804 -0.000000056986664 -0.000000078048474 0.000000049952580 0.000000076008830 0.000000061204711 0.000000061121271 -0.000000061457872 0.000000093703269 -0.000000097387095 -0.000000043019489 0.000000072007144 0.000000065302388 -0.000000065289820 0.000003650175755 0.000000071841361 -0.000000084388670 -0.000000048963559 -0.000000007288193 0.000000107172964 -0.000000111509650 0.000000101882450 0.000000092172725 0.000000118999966 0.000011068208471 -0.000000091103394 -0.000000120673201 -0.000000063310755 0.000000010679360 -0.000000129579572 -0.000000064202368 -0.000000041854135 0.000000153359691 -0.000000166947497 0.000000063245631 0.000000164912324 -0.000000129507993 0.000000110746332 -0.000000093265141 -0.000000050165940 -0.000000094190160 -0.000000027917819 -0.000000186088899 -0.000000117015193 0.000000175967761 -0.000000189039400 0.000000185059819 -0.000000037213864 -0.000000074842815 0.000000058617756 0.000000138805804 0.000000131504041 -0.000000119119288 -0.000000324067459 0.000000127093426 -0.000000189289665 -0.000000111957478 -0.000000082934036 -0.000000008973771 -0.000000149912295 -0.000000153861862 -0.000000197814587 -0.000000127762783 0.000000196648757 0.000010465354031 0.000000107583394 0.000000004871865 -0.000000152538540 -0.000000117927810 0.000000117927810 -0.000000066085390 0.000000117814964 -0.000000201114783 0.000000005205408 0.000000004718407 -0.000000001439586 -0.000000002682845 -0.000000041572696 -0.000000107895414 -0.000000083497993 -0.000000051247183 -0.000000029688215 -0.000000116702017 0.000000047507600 -0.000000044523708 0.000000025555485 -0.000000093715405 -0.000000094510966 0.000002893496785 0.000000107885695 -0.000000033358212 -0.000000033498161 0.000000095287342 0.000000018550280 0.000004790762751 0.000009388387633 0.000000026839839 -0.000000018430630 -0.000000126906834 0.000000089523851 0.000000013547850 -0.000000129139338 0.000000159288212 0.000000044027089 -0.000000068942971 -0.000000141420290 -0.000000001681698 0.000000113872464 0.000000046879899 -0.000000030025007 -0.000000070982217 0.000000128993755 -0.000000144478742 -0.000000115321741 0.000000024232303 -0.000000074459939 0.000000026983004 0.000000098425108 0.000000036732051 0.000012878516957 0.000000195007752 0.000000000000000 0.000007532239371 -0.000000195007751 0.000000048580910 0.000000007818055 -0.000000137278610 0.000000046111864 0.000000105120912 -0.000000072535955 0.000000043995729 -0.000000053109868 0.000000076885705 0.000000106581170 0.000000046819039 0.000005133482718 -0.000000047184915 0.000004202060168 -0.000000134934381 0.000000079131754 0.000006563913640 -0.000000058062968 0.000000056758104 0.000000089368442 0.000000088056244 -0.000000122477423 0.000000062632435 0.000000029732404 0.000000059589472 0.000000062872997 -0.000000051079665 0.000000064447122 0.000000034551714 0.000000092459937 0.000000155279809 0.000000119821265 0.000000072314178 0.000000088024419 0.000000148013231 -0.000000034282832 0.000000157400505 -0.000000155927735 -0.000000026860065 0.000000116740396 -0.000000008721007 0.000000039221241 -0.000000136781186 -0.000000110908246 -0.000000132739184 -0.000000137384463 0.000000018653202 -0.000000078864359 -0.000000092086306 -0.000000104084911 0.000000193755291 -0.000000017077033 -0.000000190440580 -0.000000096331321 0.000000120066791 -0.000000074544103 0.000000096026405 0.000000138270040 -0.000000025256421 0.000000077393379 0.000000130270532 0.000000107324977 -0.000000061079172 0.000000165824879 0.000000126291340 0.000000173492780 0.000000033007236 -0.000000022369932 -0.000000174706854 -0.000000060661956 0.000000205567552 0.000000070917012 0.000000143413219 -0.000000101990500 0.000010985264883 0.000000171890038 -0.000000173392201 -0.000000025958336 0.000000071362877 0.000000046277405 0.000000015121785 -0.000000015721134 -0.000000153503430 0.000000091167624 -0.000000081174363 0.000000086499545 -0.000000106343133 -0.000000069415653 0.000000037871685 -0.000000102191169 0.000000136724567 -0.000000102951197 -0.000000104042935 -0.000000260972147 0.000000050780761 -0.000000136873594 -0.000000109589115 0.000000054926036 -0.000000142341788 -0.000000072533367 -0.000000017929376 -0.000000186646223 -0.000000083354606 -0.000000024952842 -0.000000076290047 0.000000077791579 -0.000000078811455 -0.000000041503577 -0.000000073622763 -0.000000072133030 0.000000137566156 0.000000070392411 -0.000000080624300 -0.000000081810748 -0.000000075906308 -0.000000073257562 -0.000000022002489 -0.000000048841205 -0.000000046496340 0.000000086238880 -0.000000081865251 0.000000019389474 -0.000000147567113 -0.000000092657265 0.000000128643316 -0.000000107132556 -0.000000079300670 0.000000053011741 0.000000059312858 0.000000079740523 0.000000094463459 0.000000107734227 -0.000000040400042 0.000000042386905 -0.000000028663166 0.000000075599009 0.000000115093447 -0.000000129156056 0.000000200981466 0.000000112127417 0.000000079649889 0.000000141030347 -0.000000026869932 0.000000036124131 0.000000152753769 0.000000149254738 0.000000004930538 -0.000000084116375 -0.000000055760493 -0.000000064668361 -0.000000027853067 0.000000029639208 0.000000127381987 -0.000000095946215 0.000000169595142 0.000001184633660 0.000000875135160 -0.000000034639929 0.000000058741921 -0.000000069023002 0.000000065806755 -0.000000065275023 -0.000000136121431 0.000000086570743 -0.000000110860586 0.000000003013108 0.000000143228337 0.000000005055714 -0.000000092737919 0.000000458357347 -0.000000099580711 -0.000000100780147 0.000000072256648 0.000000067196636 0.000000101613497 0.000000071699413 -0.000000023410428 -0.000000181369080 0.000000120427024 -0.000000001619427 -0.000000142690070 0.000000152659593 0.000000228648673 0.000000000000000 -0.000000230810409 0.000013782948851 -0.000000011516910 0.000000055783814 -0.000000057078238 0.000000188896121 -0.000000114887045 0.000020578468043 0.000019269178488 0.000000329025060 0.000000000000000 -0.000000126876645 0.000000116545355 -0.000000122872322 0.000000140992725 -0.000000080013994 -0.000000071824158 -0.000000169445311 0.000009910815579 0.000000092865296 -0.000000243655278 0.000015237272490 0.000000000000000 0.000000243413207 -0.000000028908234 0.000000191944557 -0.000000194328046 -0.000000164108953 0.000000317057427 0.000000137642152 -0.000000064420304 -0.000000137011134 -0.000000166855947 0.000000164976928 0.000000229160880 0.000000079179979 -0.000000193030374 0.000000193429028 -0.000000035514382 0.000000202749713 -0.000000086916202 -0.000000132672658 0.000000130683938 -0.000000127821132 0.000000116501118 0.000000074248229 -0.000000060901726 0.000000212390277 0.000000159872095 0.000000339135575 -0.000000329179777 0.000000204889634 0.000000005846531 -0.000000192050036 0.000000288326036 0.000000205731490 -0.000000164187997 0.000000048054954 -0.000000043103224 -0.000000261871498 -0.000000010714338 0.000000016173096 -0.000000229767792 -0.000000135929481 -0.000000006055353 -0.000000004742703 -0.000000208467309 -0.000000209811791 -0.000000175885009 0.000000121217166 0.000000009673046 -0.000000100177354 0.000000534001223 -0.000000009671645 0.000000068952192 -0.000000093452920 -0.000000012400562 0.000000055880768 -0.000000060846030 0.000000082461950 -0.000000064222535 0.000000126215211 -0.000000061573833 0.000000139150434 0.000000005533448 -0.000000002839356 0.000000128417674 0.000000019372782 -0.000000074924923 
				</DataArray>
				<DataArray type="Float64" Name="u" format="ascii">
					-0.000000000000002 0.000000000000001 0.000000000000001 -0.000000000000001 -0.000000003236300 -0.000000000188636 0.000000000812841 0.000000001099770 0.000000001184173 0.000000001182155 0.000000001151465 0.000000001101716 0.000000001041395 0.000000000972316 0.000000000898872 0.000000000819098 0.000000000736125 0.000000000649442 0.000000000560268 0.000000000469171 0.000000000376988 0.000000000283529 0.000000000189399 0.000000000094751 0.000000000000000 0.000000000000000 0.000000000000002 0.000000000000000 -0.000000000000001 0.000000000000001 0.000000000000000 -0.000000000000000 -0.000000000000001 0.000000000000003 -0.000000000000003 0.000000000000004 0.000000000000000 -0.000000000000002 0.000000000000001 0.000000000000000 -0.000000000000002 0.000000000000001 0.000000000000003 -0.000000000000001 0.000000000075909 0.000000000151864 0.000000000228023 0.000000000304467 0.000000000381598 0.000000000459362 0.000000000538575 0.000000000619774 0.000000000704713 0.000000000793383 0.000000000890507 0.000000000995232 0.000000001118238 0.000000001265576 0.000000001465332 0.000000001725190 0.000000002156437 0.000000002997072 0.000000004632302 0.000000008560518 -0.000000000000000 0.000000000000000 -0.000000000000004 0.000000000000001 0.000000000000004 -0.000000000000007 0.000000000000001 -0.000000000000000 -0.000000000000000 0.000000000000000 -0.000000000000000 0.000000000000002 0.000000000000001 -0.000000000000000 0.000000000000002 0.000000000000001 -0.000000000000001 0.000000000000000 -0.000000000000000 0.000000000000001 0.000000001475272 0.000000000354725 0.000000000411260 0.000000000731013 0.000000000616777 0.000000001370303 0.000000001062880 0.000000000390530 0.000000000264823 0.000000000241389 0.000000001564983 0.000000000629207 0.000000000554170 0.000000000813052 0.000000001807663 0.000000002250637 0.000000000838973 0.000000000827615 0.000000000639354 0.000000000235934 0.000000000813917 0.000000000155467 0.000000000588419 0.000000000173126 0.000000000888654 0.000000000920054 0.000000000211679 0.000000000863699 0.000000001750785 0.000000001157489 0.000000001202375 0.000000000221098 0.000000000153396 0.000000002272418 0.000000001178785 0.000000000820722 0.000000000993121 0.000000000364522 0.000000000957029 0.000000001399038 0.000000000337085 0.000000000898800 0.000000000653549 0.000000001224132 0.000000000845519 0.000000002104381 0.000000000703172 0.000000000636103 0.000000000116542 0.000000000514437 0.000000000517455 0.000000000807949 0.000000001238911 0.000000000539298 0.000000000676437 0.000000000832819 0.000000001048721 0.000000000363259 0.000000001464862 0.000000001119685 0.000000000916683 0.000000002815113 0.000000000916605 0.000000000594377 0.000000000700486 0.000000000579945 0.000000000207459 0.000000001173042 0.000000000730318 0.000000000519209 0.000000001307804 0.000000001943591 0.000000000869452 0.000000000815716 0.000000000454941 0.000000001190294 0.000000001572140 0.000000000200772 0.000000000459624 0.000000001070239 0.000000001275512 -0.000000000131355 0.000000001178581 0.000000000470797 0.000000001159173 0.000000000467244 0.000000000157898 0.000000000663986 0.000000000253819 0.000000000512528 0.000000001785717 0.000000000841318 0.000000001428298 0.000000000697695 0.000000000770218 0.000000001670557 0.000000000702139 0.000000004103856 0.000000000412376 0.000000000092675 0.000000000116667 0.000000001210926 0.000000000710730 0.000000000101275 0.000000000842695 0.000000000315634 0.000000001348187 0.000000000250929 0.000000000719760 0.000000001804269 0.000000000536479 0.000000000400606 0.000000001329034 0.000000004187691 0.000000001226340 0.000000000113673 0.000000000800365 0.000000001004503 0.000000001746861 0.000000000323985 0.000000000433436 0.000000000832516 0.000000001114589 0.000000000195499 0.000000000302174 0.000000001035454 0.000000001152480 0.000000000413352 0.000000001297642 0.000000001340459 0.000000000627036 0.000000000636268 0.000000001417166 0.000000001064094 0.000000001168231 0.000000002971003 0.000000000962021 0.000000000233629 0.000000000586424 0.000000001013327 0.000000001651646 0.000000001034707 0.000000000951448 0.000000004365717 0.000000000087187 0.000000000939397 0.000000000369457 0.000000000884332 0.000000000263226 0.000000000079364 0.000000000151536 0.000000002317609 0.000000000062091 0.000000001163316 0.000000000189599 0.000000000687800 0.000000000688270 0.000000001028379 0.000000000905263 0.000000001490874 0.000000000842175 0.000000000170378 0.000000000682436 0.000000000547493 0.000000001549142 0.000000001356820 0.000000001237897 0.000000001110537 0.000000000770497 0.000000001931445 0.000000000381392 0.000000002739325 0.000000001019743 0.000000000810478 0.000000000927147 0.000000000408148 0.000000001177562 0.000000000530339 0.000000001684828 0.000000000694826 0.000000000834172 0.000000000299058 0.000000000816073 0.000000000515120 0.000000000857725 0.000000000966061 0.000000000728154 0.000000000874189 0.000000002188194 0.000000001136489 0.000000000615518 0.000000000054322 0.000000000504948 0.000000000231381 0.000000000649912 0.000000000635375 0.000000000817111 0.000000000907178 0.000000000788395 0.000000000071730 0.000000001797491 0.000000001616531 0.000000000233618 0.000000000587176 0.000000000305518 0.000000001377430 0.000000001361134 0.000000000854169 0.000000000463907 0.000000001249004 0.000000001589599 0.000000000496248 0.000000000669072 0.000000000519203 0.000000001220783 0.000000000078294 0.000000000698489 0.000000000787063 0.000000000577578 0.000000000178380 0.000000001014412 0.000000000199891 0.000000000549202 0.000000000159431 -0.000000001273837 0.000000000069389 0.000000000445316 0.000000001121166 0.000000001257115 0.000000000401935 0.000000001062769 0.000000001454550 0.000000000298877 0.000000000803229 0.000000000770336 0.000000001184291 0.000000000635298 0.000000000744025 0.000000000462896 0.000000001618237 0.000000000387233 0.000000001081887 0.000000000621764 0.000000000834053 0.000000001967762 0.000000000965520 0.000000000232784 0.000000000823908 0.000000000672819 0.000000000771848 0.000000000064189 0.000000003812865 0.000000000648291 0.000000001511632 0.000000001326385 0.000000000801240 0.000000001432279 0.000000000066140 0.000000002039353 0.000000000336384 0.000000001104961 0.000000002403483 0.000000000083782 0.000000001137345 0.000000003709904 0.000000001143661 -0.000000001018325 0.000000000078500 0.000000001304315 0.000000002687990 0.000000000276346 0.000000001278552 0.000000000745048 0.000000000903349 0.000000000863193 0.000000001130116 0.000000001130588 0.000000000723637 0.000000001216994 0.000000000715681 0.000000001247007 0.000000000516800 0.000000000610372 0.000000001054118 0.000000000956482 0.000000000706667 0.000000000994685 0.000000000286362 0.000000002338094 0.000000001090357 0.000000000820217 0.000000000292650 0.000000000929489 0.000000000906788 0.000000001272379 0.000000000225894 0.000000000521688 0.000000001493367 0.000000000647164 0.000000000345050 0.000000000639830 0.000000000179061 0.000000000569500 0.000000000222831 0.000000001348792 0.000000000514942 0.000000000769295 0.000000002608091 0.000000000878929 0.000000001184036 0.000000000309344 0.000000000887978 0.000000001972782 0.000000001243139 0.000000001442146 0.000000002080579 0.000000001502853 0.000000000298431 0.000000002310934 0.000000001223513 0.000000000440480 0.000000000170793 0.000000000434387 0.000000000402479 0.000000002282783 0.000000000892216 0.000000001903451 0.000000000376667 0.000000000738211 0.000000000580452 0.000000000260641 0.000000001412500 0.000000001298513 0.000000000946980 0.000000001482732 0.000000002460682 0.000000000735131 0.000000000370527 0.000000000472669 0.000000000432920 0.000000001743600 0.000000001006447 0.000000000289359 0.000000000657414 0.000000001316487 0.000000000854252 0.000000001428184 0.000000000129013 0.000000001167419 0.000000000224295 0.000000000807191 0.000000000562049 0.000000001303472 0.000000000842943 0.000000000459572 0.000000000339704 0.000000000693352 0.000000000268535 0.000000000292957 0.000000000530740 0.000000001405916 0.000000003124813 0.000000001073357 0.000000001700276 0.000000000901736 0.000000000197328 0.000000002063864 0.000000000853190 0.000000000401359 0.000000000546606 0.000000001546046 0.000000000725190 0.000000000420792 0.000000000320771 0.000000001130756 0.000000000903488 0.000000000808660 0.000000001109096 0.000000000761021 0.000000001407947 0.000000001090465 0.000000001095367 0.000000000767725 0.000000000950979 0.000000000580055 0.000000000767244 0.000000000625379 0.000000000140962 0.000000002268732 0.000000001603798 0.000000001641649 0.000000000403294 0.000000001440812 0.000000000515676 0.000000000536700 0.000000002325271 0.000000000592243 0.000000000413754 0.000000000944882 0.000000000953360 0.000000000555001 0.000000000939551 0.000000001248088 0.000000000216755 0.000000001611109 0.000000001843046 0.000000000117946 0.000000000086802 0.000000000584910 0.000000000904831 0.000000000858353 0.000000002055020 0.000000000974275 0.000000000466179 0.000000000351739 0.000000001452663 0.000000000098755 0.000000000461597 0.000000003057591 0.000000001297049 0.000000000132953 0.000000000371035 -0.000000000107994 0.000000000859843 0.000000001462569 0.000000000993648 0.000000001107854 0.000000000999719 0.000000000771990 0.000000000472180 0.000000000070269 0.000000001200483 0.000000001542260 0.000000001882149 0.000000000609729 0.000000001222504 0.000000000064087 0.000000001539085 0.000000002884428 0.000000000695655 0.000000000769663 0.000000001710723 0.000000000343208 0.000000000763355 0.000000000432023 0.000000002778498 0.000000000056459 0.000000000047098 0.000000000701117 0.000000000563585 0.000000000823088 0.000000000066891 0.000000000325343 0.000000001810747 0.000000000049632 0.000000004130389 0.000000000402672 0.000000001044691 0.000000004186739 0.000000000056487 0.000000001079493 0.000000000355056 0.000000000139025 0.000000000755531 0.000000000293171 0.000000001222469 0.000000000914378 0.000000000147818 0.000000000765155 0.000000000973355 0.000000001657401 0.000000000462316 0.000000000638608 0.000000000673574 0.000000000608616 0.000000000558154 0.000000001307574 0.000000001332346 0.000000001111477 0.000000000716377 0.000000000910996 0.000000001308286 0.000000001065609 0.000000001168837 0.000000000168538 0.000000003018878 0.000000000285446 0.000000000945227 0.000000001306025 0.000000000845886 0.000000000248904 0.000000000346670 0.000000001374574 0.000000000319638 0.000000000550797 0.000000000929835 0.000000001535382 0.000000000687139 0.000000000595155 0.000000000229200 0.000000000884744 0.000000000127135 0.000000000327516 0.000000000815179 0.000000000503706 0.000000001338637 0.000000001367673 0.000000000973604 0.000000000121353 0.000000001466004 0.000000000847922 0.000000000459586 0.000000001435956 0.000000001697096 0.000000000759914 0.000000001004414 0.000000000965244 0.000000000615975 0.000000000463288 0.000000002456614 0.000000003605184 0.000000001028701 0.000000001110197 0.000000000130222 0.000000000335811 0.000000001442959 
				</DataArray>
				<DataArray type="Float64" Name="v" format="ascii">