<VTKFile type="UnstructuredGrid" version="1.0" byte_order="LittleEndian" header_type="UInt64">
	<UnstructuredGrid>
		<FieldData>
			<DataArray type="Float64" Name="TimeValue" NumberOfTuples="1" format="ascii"> 0.03 </DataArray>
		</FieldData>
		<Piece NumberOfPoints="610" NumberOfCells="1134">
			<PointData>
				<DataArray type="Float64" Name="pressure" format="ascii">
					9942.082582763894607 0.000000000000000 0.000000000000000 10623.165868087506169 0.000000814441024 -0.000000691034681 -0.000000079056295 -0.000000313066540 -0.000000286356434 -0.000000104787226 -0.000000347422202 -0.000000212917401 -0.000000192226127 -0.000000006023940 -0.000000702283159 -0.000000087178953 -0.000000232325289 -0.000000222379191 -0.000000256973077 -0.000000053398302 -0.000000264816369 -0.000000103591667 -0.000000693138430 -0.000000145457010 0.000000000000000 0.000000000000000 0.000000000000000 0.000000000000000 0.000000000000000 0.000000000000000 0.000000000000000 0.000000000000000 0.000000000000000 0.000000000000000 0.000000000000000 0.000000000000000 0.000000000000000 0.000000000000000 0.000000000000000 0.000000000000000 0.000000000000000 0.000000000000000 0.000000000000000 0.000000000000000 0.000000153419615 0.000000690993962 0.000000077769800 0.000000248831627 0.000000056374335 0.000000254259459 0.000000222379222 0.000000232325260 0.000000087178973 0.000000702283212 0.000000006023953 0.000000192281812 0.000000212650615 0.000000344664397 0.000000093617484 0.000000301003747 0.000000352592305 0.000000095459186 0.000000692838744 0.000000737682438 4973.017602903542866 14303.565964168426945 4476.210840906976046 8626.707805538535467 4468.942044873198938 7931.948957352082289 7410.872537413602913 7345.641872799480552 4683.908257708973906 14975.992616678544437 3980.068085322850493 8285.857395266175445 8416.890141822543228 8055.963554040384224 5574.387777424656633 9667.639097554409091 8173.155355136724211 4780.222153885554690 14368.137158238047050 5058.115383071055476 0.000000072828112 0.000000027765011 -0.000000034580522 -0.000000076260687 0.000000074897478 -0.000000068277709 0.000000004664263 0.000000102562405 -0.000000085243791 -0.000000024915231 -0.000000133249653 -0.000000003869549 0.000000138823247 0.000000051116909 -0.000000040872173 -0.000000075645581 0.000000005619059 -0.000000084568743 0.000000078866565 -0.000000030916927 0.000000071211130 0.000000067864689 -0.000000063200974 0.000000106042004 0.000000128584942 -0.000000027153375 -0.000000051441723 -0.000000083379608 0.000000070048336 0.000000077710778 -0.000000082667506 -0.000000028929491 -0.000000126870875 -0.000000098036233 0.000000194390121 0.000000172667140 -0.000000055646020 0.000000016157170 -0.000000114781794 -0.000000106705513 0.000000029848606 -0.000000096314976 0.000000119013629 0.000000026669552 -0.000000107399049 0.000000058994470 0.000000090898947 -0.000000013139925 -0.000000106239820 0.000000015749154 -0.000000107452638 0.000000190474973 -0.000000076523149 0.000000111499969 0.000000070835147 0.000000186382730 0.000000097524285 0.000000027593439 0.000000036359660 -0.000000029231589 0.000000153092924 0.000000091321474 -0.000000049062427 -0.000000073606416 -0.000000092288833 0.000000040467038 0.000000150572779 -0.000000018883747 -0.000000145417758 0.000000043661114 0.000000120242259 -0.000000041147103 -0.000000098192977 0.000000067955677 0.000000041821257 -0.000000097790521 -0.000000068041846 0.000000005352873 0.000000027932341 0.000000138741842 -0.000000120011330 0.000009355749844 0.000000124387219 -0.000000033982610 0.000000181043236 -0.000000161754291 -0.000000053290917 -0.000000018017891 -0.000000021823260 -0.000000087277821 0.000000059823205 0.000000153361571 -0.000000099677314 0.000000078638487 0.000000119980194 -0.000000116608066 -0.000000094212143 0.000000408745354 0.000000376990155 -0.000000081071931 0.000000052662890 0.000001185833720 0.000000012092965 0.000000125383008 -0.000000012092974 -0.000000024071616 0.000000118633218 0.000000129520183 0.000000220535373 0.000000095058644 0.000000052040510 -0.000000047794051 -0.000000077048013 0.000000513483095 0.000000076475157 0.000000078328172 0.000000076635614 -0.000000019960208 -0.000000106488813 0.000000128764637 -0.000000136580462 0.000000131769624 0.000000026476401 -0.000000029721531 -0.000000085712261 0.000000086046361 -0.000000063065020 0.000000032045040 0.000000065645203 -0.000000024650552 -0.000000056978357 -0.000000078041564 0.000000049949067 0.000000076004703 0.000000061188825 0.000000061104852 -0.000000061439313 0.000000093679204 -0.000000097373813 -0.000000043003126 0.000000071967063 0.000000065292282 -0.000000065279717 0.000003624984467 0.000000071830212 -0.000000084314458 -0.000000048956388 -0.000000007283153 0.000000107153359 -0.000000111386808 0.000000101770591 0.000000092096296 0.000000118902888 0.000010245774836 -0.000000091029064 -0.000000120631643 -0.000000063292096 0.000000010624702 -0.000000129463972 -0.000000064164789 -0.000000041813489 0.000000153209902 -0.000000166679217 0.000000063193866 0.000000164777797 -0.000000129455574 0.000000110715407 -0.000000093246668 -0.000000050137919 -0.000000094145988 -0.000000027912427 -0.000000185927149 -0.000000116979045 0.000000175841281 -0.000000188863759 0.000000184922928 -0.000000037182559 -0.000000074813030 0.000000058595975 0.000000138610606 0.000000131417181 -0.000000119007843 -0.000000322782992 0.000000126945891 -0.000000189075733 -0.000000111894220 -0.000000082874176 -0.000000008969598 -0.000000149834149 -0.000000153795921 -0.000000197571452 -0.000000127631211 0.000000196410900 0.000010321520907 0.000000107502438 0.000000004869661 -0.000000152409550 -0.000000117888293 0.000000117888278 -0.000000066063888 0.000000117680877 -0.000000200915938 0.000000005198685 0.000000004711650 -0.000000001437618 -0.000000002680502 -0.000000041565123 -0.000000107875013 -0.000000083483172 -0.000000051237769 -0.000000029678968 -0.000000116666137 0.000000047501281 -0.000000044517302 0.000000025550852 -0.000000093696798 -0.000000094491026 0.000002859346754 0.000000107851882 -0.000000033355059 -0.000000033494896 0.000000095235575 0.000000018547987 0.000004746626687 0.000009314274675 0.000000026830121 -0.000000018428449 -0.000000126855314 0.000000089511254 0.000000013546648 -0.000000129073731 0.000000159121281 0.000000044016924 -0.000000068917924 -0.000000141314141 -0.000000001681341 0.000000113831269 0.000000046866528 -0.000000030019948 -0.000000070935676 0.000000128924716 -0.000000144346968 -0.000000115228121 0.000000024215946 -0.000000074407131 0.000000026979713 0.000000098413699 0.000000036679221 0.000011993521119 0.000000194741143 -0.000000000000010 0.000007426128459 -0.000000194741140 0.000000048574937 0.000000007813927 -0.000000137192163 0.000000046101671 0.000000105080976 -0.000000072504398 0.000000043981252 -0.000000053082379 0.000000076866477 0.000000106538245 0.000000046800213 0.000005076508579 -0.000000047164425 0.000004161210943 -0.000000134854944 0.000000079085215 0.000006511658244 -0.000000058037558 0.000000056727721 0.000000089350302 0.000000088017746 -0.000000122430988 0.000000062618141 0.000000029715823 0.000000059558023 0.000000062857310 -0.000000051063700 0.000000064422427 0.000000034543252 0.000000092444306 0.000000155195367 0.000000119773043 0.000000072281905 0.000000087976123 0.000000147897490 -0.000000034238252 0.000000157202507 -0.000000155698675 -0.000000026815799 0.000000116663255 -0.000000008716202 0.000000039205288 -0.000000136725441 -0.000000110890475 -0.000000132681932 -0.000000137305474 0.000000018637200 -0.000000078779061 -0.000000092065337 -0.000000104049030 0.000000193565633 -0.000000017060309 -0.000000190260779 -0.000000096299705 0.000000120020192 -0.000000074513700 0.000000095924734 0.000000138121992 -0.000000025237958 0.000000077370069 0.000000130087606 0.000000107290103 -0.000000061027827 0.000000165656093 0.000000126246937 0.000000173365902 0.000000032975835 -0.000000022356963 -0.000000174592614 -0.000000060649842 0.000000205289064 0.000000070893155 0.000000143316598 -0.000000101878155 0.000010175261932 0.000000171782828 -0.000000173288688 -0.000000025948847 0.000000071348850 0.000000046255341 0.000000015119928 -0.000000015716321 -0.000000153325388 0.000000091153449 -0.000000081157678 0.000000086482822 -0.000000106307204 -0.000000069393747 0.000000037866612 -0.000000102157677 0.000000136656576 -0.000000102910658 -0.000000104017628 -0.000000260321258 0.000000050771662 -0.000000136837329 -0.000000109546000 0.000000054831882 -0.000000142254258 -0.000000072515722 -0.000000017928316 -0.000000186543796 -0.000000083314082 -0.000000024948236 -0.000000076285121 0.000000077769162 -0.000000078802359 -0.000000041498719 -0.000000073598598 -0.000000072106775 0.000000137416480 0.000000070363769 -0.000000080591065 -0.000000081797207 -0.000000075894359 -0.000000073246183 -0.000000021999853 -0.000000048830461 -0.000000046462320 0.000000086223430 -0.000000081849474 0.000000019379683 -0.000000147485281 -0.000000092605944 0.000000128565996 -0.000000107081514 -0.000000079279422 0.000000052997927 0.000000059294664 0.000000079724424 0.000000094433730 0.000000107698568 -0.000000040395660 0.000000042382389 -0.000000028647875 0.000000075564224 0.000000115025268 -0.000000129073359 0.000000200693161 0.000000111965458 0.000000079634399 0.000000140931474 -0.000000026844813 0.000000036113132 0.000000152618820 0.000000149143353 0.000000004930050 -0.000000084107538 -0.000000055741770 -0.000000064663665 -0.000000027847436 0.000000029632086 0.000000127338642 -0.000000095923231 0.000000169511901 0.000001174287420 0.000000871550762 -0.000000034636673 0.000000058728547 -0.000000069006283 0.000000065795651 -0.000000065265225 -0.000000136093345 0.000000086557217 -0.000000110796642 0.000000003012345 0.000000143177954 0.000000005053915 -0.000000092700786 0.000000457382463 -0.000000099559387 -0.000000100687048 0.000000072252501 0.000000067181828 0.000000101580636 0.000000071684050 -0.000000023409121 -0.000000181135170 0.000000120348078 -0.000000001618724 -0.000000142624716 0.000000152192613 0.000000228329482 -0.000000000000009 -0.000000230483081 0.000013535143997 -0.000000011512354 0.000000055772330 -0.000000057035755 0.000000188732329 -0.000000114780879 0.000019425636334 0.000018262702212 0.000000327883160 -0.000000000000012 -0.000000126728922 0.000000116443100 -0.000000122823514 0.000000140938680 -0.000000079970250 -0.000000071803592 -0.000000169325001 0.000009771298796 0.000000092800285 -0.000000243361583 0.000015042682764 -0.000000000000009 0.000000243120906 -0.000000028898980 0.000000191733038 -0.000000194109215 -0.000000163924142 0.000000315928694 0.000000137532810 -0.000000064371294 -0.000000136903932 -0.000000166641169 0.000000164850144 0.000000228811832 0.000000079110272 -0.000000192811626 0.000000193246521 -0.000000035488930 0.000000202613617 -0.000000086876533 -0.000000132553212 0.000000130641887 -0.000000127712457 0.000000116439724 0.000000074151115 -0.000000060824287 0.000000212120252 0.000000159620041 0.000000337856921 -0.000000327959947 0.000000204117146 0.000000005844201 -0.000000191336012 0.000000287633199 0.000000205531806 -0.000000163895311 0.000000048028753 -0.000000043097614 -0.000000261311237 -0.000000010696049 0.000000016154056 -0.000000229474968 -0.000000135811230 -0.000000006048954 -0.000000004737682 -0.000000208250951 -0.000000209348369 -0.000000175677087 0.000000120996761 0.000000009671147 -0.000000100157418 0.000000532008498 -0.000000009669742 0.000000068931392 -0.000000093424841 -0.000000012390107 0.000000055868786 -0.000000060827384 0.000000082451368 -0.000000064217263 0.000000126094901 -0.000000061539168 0.000000139106678 0.000000005531974 -0.000000002838573 0.000000128383269 0.000000019367407 -0.000000074907223 
				</DataArray>
				<DataArray type="Float64" Name="u" format="ascii">
					-0.000000000000002 0.000000000000001 0.000000000000001 -0.000000000000001 -0.000000002982619 -0.000000000073496 0.000000000873184 0.000000001135718 0.000000001207671 0.000000001199008 0.000000001163760 0.000000001111071 0.000000001048591 0.000000000977956 0.000000000903227 0.000000000822507 0.000000000738754 0.000000000651476 0.000000000561830 0.000000000470355 0.000000000377850 0.000000000284134 0.000000000189782 0.000000000094940 0.000000000000000 0.000000000000000 0.000000000000002 0.000000000000000 -0.000000000000001 0.000000000000001 0.000000000000000 -0.000000000000000 -0.000000000000001 0.000000000000003 -0.000000000000003 0.000000000000004 0.000000000000000 -0.000000000000002 0.000000000000001 0.000000000000000 -0.000000000000001 0.000000000000001 0.000000000000003 -0.000000000000001 0.000000000073346 0.000000000146726 0.000000000220249 0.000000000293987 0.000000000368260 0.000000000443045 0.000000000519062 0.000000000596783 0.000000000677809 0.000000000762174 0.000000000854176 0.000000000953125 0.000000001068885 0.000000001207084 0.000000001393878 0.000000001636633 0.000000002039179 0.000000002824306 0.000000004353538 0.000000008031112 -0.000000000000001 0.000000000000000 -0.000000000000004 0.000000000000001 0.000000000000004 -0.000000000000007 0.000000000000001 -0.000000000000000 -0.000000000000000 0.000000000000000 -0.000000000000000 0.000000000000002 0.000000000000001 -0.000000000000000 0.000000000000001 0.000000000000001 -0.000000000000001 0.000000000000000 -0.000000000000000 0.000000000000001 0.000000001473490 0.000000000354689 0.000000000397853 0.000000000711486 0.000000000614853 0.000000001360239 0.000000001061636 0.000000000381243 0.000000000265304 0.000000000240369 0.000000001559718 0.000000000626429 0.000000000543025 0.000000000806631 0.000000001796329 0.000000002238654 0.000000000814659 0.000000000828925 0.000000000618149 0.000000000232897 0.000000000796011 0.000000000150518 0.000000000574594 0.000000000169242 0.000000000875859 0.000000000894179 0.000000000209478 0.000000000847955 0.000000001744569 0.000000001107295 0.000000001211251 0.000000000221166 0.000000000152793 0.000000002258893 0.000000001179239 0.000000000795091 0.000000000996179 0.000000000362082 0.000000000946813 0.000000001387190 0.000000000333124 0.000000000898860 0.000000000634223 0.000000001215875 0.000000000822997 0.000000002095088 0.000000000702366 0.000000000637659 0.000000000114398 0.000000000496510 0.000000000511154 0.000000000800655 0.000000001235894 0.000000000535428 0.000000000661114 0.000000000828809 0.000000001037266 0.000000000357152 0.000000001454252 0.000000001074311 0.000000000918958 0.000000002805167 0.000000000884933 0.000000000584995 0.000000000688749 0.000000000572192 0.000000000205670 0.000000001161407 0.000000000704563 0.000000000519992 0.000000001302463 0.000000001932656 0.000000000867666 0.000000000797065 0.000000000448974 0.000000001180532 0.000000001566051 0.000000000201022 0.000000000446853 0.000000001057708 0.000000001216766 -0.000000000123825 0.000000001190752 0.000000000455063 0.000000001157423 0.000000000463595 0.000000000157823 0.000000000648244 0.000000000247594 0.000000000504472 0.000000001777307 0.000000000836582 0.000000001430139 0.000000000688086 0.000000000767758 0.000000001660415 0.000000000696267 0.000000004058913 0.000000000396351 0.000000000089623 0.000000000116860 0.000000001201822 0.000000000684123 0.000000000100102 0.000000000845820 0.000000000314608 0.000000001350476 0.000000000246012 0.000000000708782 0.000000001799154 0.000000000535349 0.000000000391608 0.000000001267322 0.000000004176837 0.000000001239216 0.000000000113341 0.000000000799833 0.000000000998721 0.000000001743034 0.000000000315364 0.000000000433107 0.000000000809742 0.000000001113933 0.000000000189705 0.000000000302431 0.000000000998481 0.000000001144351 0.000000000411082 0.000000001297068 0.000000001330823 0.000000000614826 0.000000000632653 0.000000001412304 0.000000001054851 0.000000001172643 0.000000002953507 0.000000000925027 0.000000000232354 0.000000000570005 0.000000001006431 0.000000001642779 0.000000001040889 0.000000000912293 0.000000004340412 0.000000000086570 0.000000000925599 0.000000000364296 0.000000000876194 0.000000000263087 0.000000000079460 0.000000000146465 0.000000002184848 0.000000000060118 0.000000001153506 0.000000000189953 0.000000000687715 0.000000000670229 0.000000001024325 0.000000000890200 0.000000001479200 0.000000000844488 0.000000000168321 0.000000000658101 0.000000000545247 0.000000001545212 0.000000001348676 0.000000001242779 0.000000001110413 0.000000000747740 0.000000001919159 0.000000000378366 0.000000002730199 0.000000000979883 0.000000000793923 0.000000000928184 0.000000000403241 0.000000001168643 0.000000000520858 0.000000001677937 0.000000000692199 0.000000000814551 0.000000000294961 0.000000000816403 0.000000000508108 0.000000000855096 0.000000000954616 0.000000000721276 0.000000000848460 0.000000002179897 0.000000001125785 0.000000000617257 0.000000000053305 0.000000000486965 0.000000000228429 0.000000000641460 0.000000000634970 0.000000000804240 0.000000000911251 0.000000000757799 0.000000000071016 0.000000001787789 0.000000001605806 0.000000000228510 0.000000000575987 0.000000000304781 0.000000001379906 0.000000001363691 0.000000000834937 0.000000000460853 0.000000001247350 0.000000001586342 0.000000000494601 0.000000000670198 0.000000000502135 0.000000001208362 0.000000000077046 0.000000000700645 0.000000000780185 0.000000000556685 0.000000000175484 0.000000001004342 0.000000000194474 0.000000000550541 0.000000000155934 -0.000000001270579 0.000000000067921 0.000000000429825 0.000000001113578 0.000000001250926 0.000000000394148 0.000000001052332 0.000000001443545 0.000000000289607 0.000000000797875 0.000000000759669 0.000000001172209 0.000000000619082 0.000000000735929 0.000000000451770 0.000000001613724 0.000000000387582 0.000000001040970 0.000000000620695 0.000000000813880 0.000000001960548 0.000000000941983 0.000000000225419 0.000000000809503 0.000000000668164 0.000000000774581 0.000000000063320 0.000000003784462 0.000000000624258 0.000000001500564 0.000000001315330 0.000000000779488 0.000000001425863 0.000000000064270 0.000000001929359 0.000000000337066 0.000000001059578 0.000000002392118 0.000000000083381 0.000000001146802 0.000000003682837 0.000000001093235 -0.000000001009322 0.000000000078480 0.000000001331552 0.000000002668611 0.000000000266979 0.000000001266562 0.000000000740864 0.000000000896237 0.000000000852914 0.000000001127506 0.000000001119315 0.000000000707080 0.000000001212984 0.000000000701871 0.000000001271032 0.000000000512399 0.000000000605651 0.000000001041965 0.000000000943831 0.000000000683944 0.000000000994717 0.000000000283318 0.000000002323851 0.000000001092284 0.000000000792272 0.000000000290470 0.000000000920327 0.000000000905741 0.000000001278470 0.000000000225154 0.000000000509561 0.000000001483384 0.000000000636523 0.000000000333897 0.000000000633517 0.000000000175573 0.000000000560940 0.000000000222550 0.000000001355436 0.000000000502501 0.000000000767698 0.000000002593059 0.000000000848657 0.000000001186046 0.000000000307488 0.000000000876541 0.000000001963150 0.000000001235822 0.000000001430734 0.000000002068411 0.000000001494937 0.000000000293111 0.000000002301559 0.000000001170889 0.000000000441089 0.000000000166502 0.000000000427531 0.000000000398226 0.000000002272555 0.000000000864094 0.000000001932990 0.000000000364961 0.000000000739541 0.000000000560973 0.000000000256615 0.000000001345305 0.000000001299958 0.000000000942510 0.000000001473623 0.000000002448003 0.000000000735685 0.000000000371141 0.000000000463047 0.000000000429008 0.000000001737652 0.000000000998308 0.000000000286764 0.000000000650029 0.000000001323244 0.000000000850895 0.000000001415429 0.000000000125491 0.000000001155611 0.000000000223794 0.000000000777641 0.000000000544581 0.000000001298968 0.000000000811542 0.000000000458784 0.000000000338166 0.000000000688681 0.000000000260906 0.000000000283256 0.000000000527925 0.000000001402759 0.000000003106325 0.000000001077644 0.000000001689375 0.000000000867093 0.000000000195959 0.000000002057187 0.000000000829319 0.000000000390701 0.000000000546197 0.000000001544334 0.000000000712108 0.000000000419718 0.000000000313928 0.000000001124259 0.000000000897296 0.000000000799523 0.000000001096369 0.000000000757598 0.000000001420597 0.000000001075147 0.000000001091751 0.000000000752973 0.000000000937330 0.000000000574694 0.000000000769382 0.000000000603090 0.000000000139005 0.000000002250920 0.000000001596395 0.000000001630230 0.000000000401858 0.000000001440188 0.000000000500642 0.000000000537062 0.000000002317272 0.000000000593316 0.000000000401565 0.000000000913612 0.000000000950208 0.000000000548595 0.000000000926663 0.000000001237483 0.000000000209533 0.000000001629715 0.000000001744538 0.000000000118011 0.000000000084173 0.000000000582959 0.000000000888681 0.000000000843363 0.000000002048422 0.000000000941592 0.000000000466341 0.000000000341285 0.000000001382938 0.000000000096406 0.000000000462592 0.000000003042482 0.000000001311195 0.000000000132732 0.000000000358367 -0.000000000112394 0.000000000843373 0.000000001450623 0.000000000991654 0.000000001102781 0.000000000986329 0.000000000753636 0.000000000467158 0.000000000070009 0.000000001195577 0.000000001531056 0.000000001874264 0.000000000591159 0.000000001240536 0.000000000063949 0.000000001463083 0.000000002872320 0.000000000693920 0.000000000752016 0.000000001707142 0.000000000334984 0.000000000750877 0.000000000408692 0.000000002671713 0.000000000056562 0.000000000045528 0.000000000702810 0.000000000543996 0.000000000808197 0.000000000066821 0.000000000314207 0.000000001716453 0.000000000048353 0.000000004104442 0.000000000403554 0.000000000999967 0.000000004162272 0.000000000056155 0.000000001087339 0.000000000351598 0.000000000134900 0.000000000754870 0.000000000293601 0.000000001167675 0.000000000917685 0.000000000146334 0.000000000736554 0.000000000972483 0.000000001643347 0.000000000454084 0.000000000624506 0.000000000660421 0.000000000604557 0.000000000554702 0.000000001303402 0.000000001328906 0.000000001103040 0.000000000695179 0.000000000905578 0.000000001299365 0.000000001021230 0.000000001175878 0.000000000167729 0.000000003000514 0.000000000285479 0.000000000919407 0.000000001306682 0.000000000827908 0.000000000241367 0.000000000340101 0.000000001364309 0.000000000314671 0.000000000536611 0.000000000918084 0.000000001529286 0.000000000683763 0.000000000584408 0.000000000225163 0.000000000874151 0.000000000124460 0.000000000321064 0.000000000803693 0.000000000490648 0.000000001327156 0.000000001360406 0.000000000978107 0.000000000120311 0.000000001456872 0.000000000814742 0.000000000457576 0.000000001434077 0.000000001685715 0.000000000734712 0.000000001005829 0.000000000931252 0.000000000616289 0.000000000448913 0.000000002447598 0.000000003583398 0.000000000985757 0.000000001117157 0.000000000129486 0.000000000335307 0.000000001443420 
				</DataArray>
				<DataArray type="Float64" Name="v" format="ascii">