<VTKFile type="UnstructuredGrid" version="1.0" byte_order="LittleEndian" header_type="UInt64">
	<UnstructuredGrid>
		<FieldData>
			<DataArray type="Float64" Name="TimeValue" NumberOfTuples="1" format="ascii"> 0.0 </DataArray>
		</FieldData>
		<Piece NumberOfPoints="610" NumberOfCells="1134">
			<PointData>
				<DataArray type="Float64" Name="pressure" format="ascii">
					5302.444059740307239 0.000000000000000 0.000000000000000 5665.688480662314760 0.000000304524684 -0.000000368566965 -0.000000061710625 -0.000000227978292 -0.000000194890830 -0.000000081285513 -0.000000245154846 -0.000000154519901 -0.000000140208669 -0.000000004830113 -0.000000374566467 -0.000000068373098 -0.000000160251469 -0.000000157561824 -0.000000181586353 -0.000000042768448 -0.000000197135657 -0.000000077968257 -0.000000369690904 -0.000000117585456 0.000000000000000 0.000000000000000 0.000000000000000 0.000000000000000 0.000000000000000 0.000000000000000 0.000000000000000 0.000000000000000 0.000000000000000 0.000000000000000 0.000000000000000 0.000000000000000 0.000000000000000 0.000000000000000 0.000000000000000 0.000000000000000 0.000000000000000 0.000000000000000 0.000000000000000 0.000000000000000 0.000000122751726 0.000000368545247 0.000000060166892 0.000000189558772 0.000000045486022 0.000000179850311 0.000000157560732 0.000000160252557 0.000000068372458 0.000000374568437 0.000000004829699 0.000000140242523 0.000000154360704 0.000000242706537 0.000000073599100 0.000000204007015 0.000000255359224 0.000000075827590 0.000000369531065 0.000000378841331 4081.652036728804433 7628.568543125591532 3493.501497768349054 6345.057562381327443 3630.784455612937109 5712.839812864472151 5308.240260999369639 5140.884360390750771 3668.487625077635585 7987.196093666783781 3190.276220634623314 6042.946093383990046 6113.141344963634765 5670.661164750424177 4361.951153713114763 6557.642177003224788 5869.056870702181186 3597.652712642534880 7663.006513371812616 4088.689615296027114 0.000000066509593 0.000000025389419 -0.000000029614806 -0.000000064709202 0.000000064731044 -0.000000057854652 0.000000003892088 0.000000089180198 -0.000000072603908 -0.000000021705989 -0.000000116586759 -0.000000003388415 0.000000122069851 0.000000043550585 -0.000000036200878 -0.000000067403980 0.000000004994859 -0.000000075168561 0.000000071038570 -0.000000027655861 0.000000058855331 0.000000061128035 -0.000000055694502 0.000000091873680 0.000000109664827 -0.000000024792162 -0.000000044407300 -0.000000071401820 0.000000058746365 0.000000066299725 -0.000000070662740 -0.000000025935133 -0.000000108448175 -0.000000080690555 0.000000160227868 0.000000141571358 -0.000000044784693 0.000000013378191 -0.000000098064727 -0.000000091749652 0.000000026529109 -0.000000085440893 0.000000100651690 0.000000022182484 -0.000000093052591 0.000000051253935 0.000000080936325 -0.000000011087567 -0.000000090943107 0.000000013297628 -0.000000091844284 0.000000156201870 -0.000000067180059 0.000000097997099 0.000000061722062 0.000000154558139 0.000000086349394 0.000000023690491 0.000000030473554 -0.000000025687484 0.000000131574002 0.000000080113830 -0.000000041569755 -0.000000066308305 -0.000000082926310 0.000000034656700 0.000000120210610 -0.000000016430764 -0.000000125860606 0.000000036202027 0.000000103508394 -0.000000034728633 -0.000000084048620 0.000000059727460 0.000000036045341 -0.000000085907568 -0.000000061278180 0.000000004821471 0.000000023842727 0.000000117232938 -0.000000097771967 0.000005524013973 0.000000100957992 -0.000000028072187 0.000000142807639 -0.000000128722724 -0.000000046494369 -0.000000015672350 -0.000000019095378 -0.000000073901513 0.000000050497565 0.000000126055991 -0.000000089358327 0.000000067592820 0.000000102258586 -0.000000103322029 -0.000000084291417 0.000000304767237 0.000000262598154 -0.000000071827728 0.000000046450830 0.000000829548805 0.000000010367370 0.000000107466800 -0.000000010367061 -0.000000020547799 0.000000101265095 0.000000107368954 0.000000181387986 0.000000082810191 0.000000045679042 -0.000000041207637 -0.000000067045427 0.000000365395035 0.000000066926278 0.000000068548667 0.000000068790885 -0.000000017884249 -0.000000088120837 0.000000106864295 -0.000000111865363 0.000000106889873 0.000000023847523 -0.000000026746103 -0.000000077231166 0.000000077451534 -0.000000053686981 0.000000026049565 0.000000056993212 -0.000000021553910 -0.000000050735784 -0.000000070501888 0.000000045404394 0.000000069527358 0.000000053451982 0.000000053312828 -0.000000053369305 0.000000081857799 -0.000000086891672 -0.000000037022007 0.000000060953249 0.000000058032246 -0.000000058021829 0.000002432101282 0.000000063844001 -0.000000069865867 -0.000000043596166 -0.000000006108983 0.000000094739571 -0.000000091207012 0.000000083347518 0.000000076543506 0.000000098903069 0.000004722058093 -0.000000075718004 -0.000000104251171 -0.000000055028748 0.000000007823997 -0.000000107199181 -0.000000054227080 -0.000000034466065 0.000000126262647 -0.000000133532098 0.000000052556798 0.000000137062526 -0.000000111159392 0.000000096450254 -0.000000082224442 -0.000000042457427 -0.000000080342422 -0.000000024628307 -0.000000154159373 -0.000000101520596 0.000000147178848 -0.000000156057242 0.000000154564566 -0.000000030877344 -0.000000064279172 0.000000050484562 0.000000111936763 0.000000110434703 -0.000000098298784 -0.000000242774978 0.000000103646946 -0.000000154603467 -0.000000094713045 -0.000000069350971 -0.000000007656668 -0.000000127284399 -0.000000131744778 -0.000000160795825 -0.000000104890311 0.000000159996239 0.000006096661536 0.000000089779622 0.000000004161214 -0.000000126545646 -0.000000101991804 0.000000101992306 -0.000000057218005 0.000000096188471 -0.000000165475265 0.000000004219810 0.000000003800289 -0.000000001162223 -0.000000002221199 -0.000000036748880 -0.000000095273302 -0.000000073881595 -0.000000045289167 -0.000000025753445 -0.000000101268856 0.000000042425482 -0.000000039663207 0.000000022601760 -0.000000082611298 -0.000000083143931 0.000001767594453 0.000000093551275 -0.000000030086021 -0.000000030189262 0.000000080753198 0.000000016606144 0.000003038374995 0.000005989640022 0.000000023138835 -0.000000016518575 -0.000000108912236 0.000000079798329 0.000000012230739 -0.000000109767772 0.000000130641559 0.000000038605311 -0.000000059436965 -0.000000118027408 -0.000000001483945 0.000000098186392 0.000000040798038 -0.000000026606191 -0.000000059633545 0.000000109388093 -0.000000119383063 -0.000000095866802 0.000000020330922 -0.000000062319851 0.000000024160425 0.000000088242705 0.000000029583287 0.000005817047087 0.000000157528645 0.000000000000303 0.000004403527683 -0.000000157528739 0.000000043483455 0.000000006633421 -0.000000115545496 0.000000040504107 0.000000090462133 -0.000000062067051 0.000000038074486 -0.000000045103193 0.000000067236122 0.000000091499056 0.000000040193030 0.000003168424688 -0.000000040376870 0.000002608870342 -0.000000113934864 0.000000066815470 0.000004202846234 -0.000000049670127 0.000000048134467 0.000000078719675 0.000000075333144 -0.000000105403908 0.000000054952129 0.000000025168983 0.000000050566687 0.000000054979449 -0.000000044293543 0.000000055441700 0.000000030239359 0.000000081941631 0.000000131588518 0.000000102866684 0.000000061816982 0.000000074565049 0.000000123275258 -0.000000027776648 0.000000127773694 -0.000000125415583 -0.000000021450028 0.000000098040073 -0.000000007382423 0.000000033653923 -0.000000117368512 -0.000000098457974 -0.000000113632053 -0.000000116125165 0.000000015463763 -0.000000064566951 -0.000000080790501 -0.000000089917411 0.000000159506123 -0.000000014058671 -0.000000157080513 -0.000000083378868 0.000000103236778 -0.000000063965000 0.000000078714669 0.000000113273436 -0.000000021103236 0.000000067212855 0.000000105065842 0.000000092930911 -0.000000050686468 0.000000136224443 0.000000109017755 0.000000144985593 0.000000027213526 -0.000000018901378 -0.000000146793988 -0.000000053466840 0.000000166144694 0.000000061326090 0.000000120321832 -0.000000083420694 0.000004738800742 0.000000144746546 -0.000000146308539 -0.000000022369288 0.000000062926830 0.000000039442543 0.000000013528678 -0.000000013648562 -0.000000125188468 0.000000081010725 -0.000000071470273 0.000000076321284 -0.000000091939676 -0.000000060177233 0.000000033804112 -0.000000088456435 0.000000116324161 -0.000000088466778 -0.000000091073940 -0.000000202670566 0.000000044922791 -0.000000119437962 -0.000000094169814 0.000000043755766 -0.000000119944845 -0.000000063493274 -0.000000016375301 -0.000000158108291 -0.000000070990480 -0.000000022046073 -0.000000069485703 0.000000067667798 -0.000000070670315 -0.000000037195798 -0.000000063722965 -0.000000062183615 0.000000112593096 0.000000060406127 -0.000000069146404 -0.000000072549380 -0.000000067427206 -0.000000065095719 -0.000000019702763 -0.000000042900513 -0.000000038851987 0.000000076287427 -0.000000072240231 0.000000016483128 -0.000000124938735 -0.000000078452511 0.000000108515598 -0.000000091316798 -0.000000069167276 0.000000046289097 0.000000051470698 0.000000070256240 0.000000081896133 0.000000093220701 -0.000000036285121 0.000000038088799 -0.000000024308119 0.000000064534425 0.000000097152838 -0.000000108624305 0.000000161887050 0.000000090278320 0.000000070259493 0.000000118095317 -0.000000022173929 0.000000031359321 0.000000126431666 0.000000124605611 0.000000004445710 -0.000000075628190 -0.000000048224895 -0.000000058732252 -0.000000024541606 0.000000025957995 0.000000110102775 -0.000000084027816 0.000000144372133 0.000000719815217 0.000000615097005 -0.000000031248202 0.000000051534418 -0.000000060426563 0.000000058324142 -0.000000058070431 -0.000000119837356 0.000000076913412 -0.000000093693042 0.000000002637274 0.000000123634368 0.000000004364581 -0.000000079631543 0.000000344690881 -0.000000087554307 -0.000000083221034 0.000000066004379 0.000000059026213 0.000000088004139 0.000000063044916 -0.000000021407568 -0.000000147016529 0.000000101173694 -0.000000001385143 -0.000000121840211 0.000000116768590 0.000000184474134 0.000000000000304 -0.000000186041648 0.000007773902145 -0.000000009895699 0.000000049116042 -0.000000047657468 0.000000156504403 -0.000000094869154 0.000009907143715 0.000009452929666 0.000000249186488 0.000000000000399 -0.000000103453819 0.000000096500500 -0.000000105548722 0.000000121291917 -0.000000067790816 -0.000000062498298 -0.000000141808325 0.000005902720028 0.000000077773007 -0.000000198280371 0.000008972169852 0.000000000000292 0.000000198126146 -0.000000025048752 0.000000156993088 -0.000000158750238 -0.000000134064011 0.000000239630983 0.000000114551370 -0.000000053729180 -0.000000114114353 -0.000000135267369 0.000000137529883 0.000000183910331 0.000000065551653 -0.000000157634394 0.000000159545350 -0.000000029709355 0.000000170135938 -0.000000074226220 -0.000000109707556 0.000000113208659 -0.000000106010910 0.000000098868823 0.000000060134930 -0.000000049408125 0.000000172306010 0.000000128029258 0.000000255120442 -0.000000247983223 0.000000154131221 0.000000005022479 -0.000000144638565 0.000000224511344 0.000000169442527 -0.000000130464610 0.000000040720217 -0.000000038505843 -0.000000205571911 -0.000000008538104 0.000000013178237 -0.000000186377872 -0.000000112600685 -0.000000004964945 -0.000000003887037 -0.000000171067879 -0.000000164338638 -0.000000143286212 0.000000096192618 0.000000008525513 -0.000000088302451 0.000000359959244 -0.000000008524613 0.000000059874015 -0.000000081166542 -0.000000010291203 0.000000049132995 -0.000000052802826 0.000000073709224 -0.000000058136241 0.000000104051015 -0.000000052093899 0.000000120644802 0.000000004831896 -0.000000002477142 0.000000112011036 0.000000016872786 -0.000000065650989 
				</DataArray>
				<DataArray type="Float64" Name="u" format="ascii">
					-0.000000000000001 0.000000000000000 0.000000000000001 -0.000000000000000 -0.000000001363706 0.000000000416477 0.000000000951907 0.000000001058740 0.000000001061445 0.000000001023920 0.000000000974095 0.000000000917846 0.000000000857694 0.000000000794140 0.000000000728769 0.000000000660537 0.000000000590840 0.000000000519419 0.000000000446844 0.000000000373383 0.000000000299432 0.000000000224915 0.000000000150105 0.000000000075075 0.000000000000000 0.000000000000000 0.000000000000001 0.000000000000000 -0.000000000000001 0.000000000000001 0.000000000000000 -0.000000000000000 -0.000000000000001 0.000000000000002 -0.000000000000002 0.000000000000003 0.000000000000000 -0.000000000000002 0.000000000000001 0.000000000000000 -0.000000000000001 0.000000000000001 0.000000000000002 -0.000000000000000 0.000000000046788 0.000000000093560 0.000000000140233 0.000000000186834 0.000000000233332 0.000000000279810 0.000000000326496 0.000000000373527 0.000000000421610 0.000000000470908 0.000000000523268 0.000000000578701 0.000000000641954 0.000000000715866 0.000000000813782 0.000000000940197 0.000000001148714 0.000000001556968 0.000000002359099 0.000000004302112 -0.000000000000001 0.000000000000000 -0.000000000000003 0.000000000000001 0.000000000000003 -0.000000000000005 0.000000000000001 -0.000000000000000 0.000000000000000 0.000000000000000 -0.000000000000000 0.000000000000001 0.000000000000000 0.000000000000000 0.000000000000001 0.000000000000001 -0.000000000000000 0.000000000000000 -0.000000000000000 0.000000000000001 0.000000001148591 0.000000000276153 0.000000000255437 0.000000000471334 0.000000000467646 0.000000000985915 0.000000000820157 0.000000000255183 0.000000000209524 0.000000000181389 0.000000001183394 0.000000000471683 0.000000000372830 0.000000000591757 0.000000001318504 0.000000001657312 0.000000000532848 0.000000000653734 0.000000000395549 0.000000000166451 0.000000000539115 0.000000000097058 0.000000000387448 0.000000000114885 0.000000000617671 0.000000000587395 0.000000000151846 0.000000000585164 0.000000001331495 0.000000000668035 0.000000000995384 0.000000000172720 0.000000000115562 0.000000001656708 0.000000000922805 0.000000000513939 0.000000000794449 0.000000000268451 0.000000000681359 0.000000001000574 0.000000000239516 0.000000000700974 0.000000000413894 0.000000000895532 0.000000000544799 0.000000001572477 0.000000000542514 0.000000000505933 0.000000000079366 0.000000000314768 0.000000000361176 0.000000000583141 0.000000000945038 0.000000000395416 0.000000000447570 0.000000000621686 0.000000000743938 0.000000000249753 0.000000001062494 0.000000000658986 0.000000000729590 0.000000002140671 0.000000000561558 0.000000000410865 0.000000000480828 0.000000000407199 0.000000000150674 0.000000000835718 0.000000000445538 0.000000000409758 0.000000000981285 0.000000001427795 0.000000000665412 0.000000000538261 0.000000000320190 0.000000000860182 0.000000001240679 0.000000000158087 0.000000000294577 0.000000000754011 0.000000000722306 -0.000000000005249 0.000000000995302 0.000000000290824 0.000000000891888 0.000000000341076 0.000000000122530 0.000000000435165 0.000000000166179 0.000000000354618 0.000000001328899 0.000000000623557 0.000000001153507 0.000000000488123 0.000000000583456 0.000000001223836 0.000000000509705 0.000000003110183 0.000000000245504 0.000000000057440 0.000000000092178 0.000000000866780 0.000000000427341 0.000000000072083 0.000000000677192 0.000000000239130 0.000000001070480 0.000000000169548 0.000000000494721 0.000000001374735 0.000000000410434 0.000000000265690 0.000000000750574 0.000000003251208 0.000000001038141 0.000000000086380 0.000000000620154 0.000000000742882 0.000000001342090 0.000000000209277 0.000000000335520 0.000000000533832 0.000000000884484 0.000000000123827 0.000000000237149 0.000000000629568 0.000000000830175 0.000000000307284 0.000000001009101 0.000000000975038 0.000000000423366 0.000000000471873 0.000000001070503 0.000000000767579 0.000000000940907 0.000000002160880 0.000000000574313 0.000000000173796 0.000000000375234 0.000000000742592 0.000000001220120 0.000000000846403 0.000000000557692 0.000000003166000 0.000000000064056 0.000000000649234 0.000000000258686 0.000000000636943 0.000000000204170 0.000000000062472 0.000000000093587 0.000000001207373 0.000000000038779 0.000000000896188 0.000000000150071 0.000000000535394 0.000000000445281 0.000000000773268 0.000000000619503 0.000000001066235 0.000000000671611 0.000000000120863 0.000000000415262 0.000000000411618 0.000000001181887 0.000000000998138 0.000000000999495 0.000000000865271 0.000000000487859 0.000000001403947 0.000000000278240 0.000000002093418 0.000000000606117 0.000000000543053 0.000000000729661 0.000000000289412 0.000000000855774 0.000000000361911 0.000000001263631 0.000000000523678 0.000000000548020 0.000000000209820 0.000000000638215 0.000000000361262 0.000000000650412 0.000000000682033 0.000000000524352 0.000000000553415 0.000000001651670 0.000000000813978 0.000000000491068 0.000000000036913 0.000000000307383 0.000000000160941 0.000000000457175 0.000000000492376 0.000000000563692 0.000000000733528 0.000000000469638 0.000000000051625 0.000000001325957 0.000000001177363 0.000000000155582 0.000000000394965 0.000000000233151 0.000000001096254 0.000000001093667 0.000000000564620 0.000000000341813 0.000000000962983 0.000000001219607 0.000000000375671 0.000000000528840 0.000000000321875 0.000000000863984 0.000000000054163 0.000000000558460 0.000000000558809 0.000000000350273 0.000000000123151 0.000000000716774 0.000000000128723 0.000000000436774 0.000000000105072 -0.000000000945787 0.000000000046431 0.000000000272596 0.000000000820991 0.000000000935479 0.000000000271844 0.000000000759955 0.000000001046328 0.000000000187595 0.000000000590334 0.000000000538278 0.000000000840825 0.000000000412900 0.000000000530371 0.000000000303895 0.000000001237607 0.000000000304041 0.000000000648532 0.000000000477286 0.000000000545409 0.000000001485549 0.000000000631252 0.000000000145514 0.000000000562143 0.000000000484783 0.000000000619385 0.000000000045105 0.000000002720827 0.000000000390776 0.000000001093911 0.000000000954325 0.000000000514958 0.000000001069902 0.000000000042269 0.000000001089967 0.000000000266612 0.000000000647908 0.000000001788464 0.000000000062675 0.000000000946799 0.000000002636537 0.000000000656727 -0.000000000692846 0.000000000061031 0.000000001182362 0.000000001944620 0.000000000170173 0.000000000910838 0.000000000552551 0.000000000657042 0.000000000610221 0.000000000862953 0.000000000806230 0.000000000477962 0.000000000920534 0.000000000483420 0.000000001116723 0.000000000375195 0.000000000445467 0.000000000744210 0.000000000668965 0.000000000440042 0.000000000775689 0.000000000205053 0.000000001699018 0.000000000863366 0.000000000504251 0.000000000214331 0.000000000665923 0.000000000699633 0.000000001035386 0.000000000171121 0.000000000344147 0.000000001089199 0.000000000445310 0.000000000214715 0.000000000459726 0.000000000121089 0.000000000391654 0.000000000171752 0.000000001104881 0.000000000336588 0.000000000588643 0.000000001903462 0.000000000538947 0.000000000937630 0.000000000229091 0.000000000623414 0.000000001463940 0.000000000916537 0.000000001037431 0.000000001521817 0.000000001112677 0.000000000203900 0.000000001737040 0.000000000707834 0.000000000347253 0.000000000111401 0.000000000300543 0.000000000288199 0.000000001704647 0.000000000557436 0.000000001689264 0.000000000236102 0.000000000584094 0.000000000358202 0.000000000180834 0.000000000791205 0.000000001024409 0.000000000707149 0.000000001087708 0.000000001816073 0.000000000576572 0.000000000292768 0.000000000317623 0.000000000313272 0.000000001318767 0.000000000729951 0.000000000209602 0.000000000467883 0.000000001076555 0.000000000642735 0.000000001016403 0.000000000082974 0.000000000825064 0.000000000171434 0.000000000488003 0.000000000352551 0.000000000989759 0.000000000507317 0.000000000352817 0.000000000254590 0.000000000509660 0.000000000171453 0.000000000181346 0.000000000395012 0.000000001075088 0.000000002268425 0.000000000865226 0.000000001231795 0.000000000538507 0.000000000145110 0.000000001568258 0.000000000544989 0.000000000259313 0.000000000423174 0.000000001198160 0.000000000491036 0.000000000320706 0.000000000214319 0.000000000835560 0.000000000662488 0.000000000574424 0.000000000780469 0.000000000569837 0.000000001190198 0.000000000758481 0.000000000828553 0.000000000518557 0.000000000659996 0.000000000418774 0.000000000611989 0.000000000380604 0.000000000098817 0.000000001617651 0.000000001195548 0.000000001189395 0.000000000304712 0.000000001122250 0.000000000327562 0.000000000420600 0.000000001765748 0.000000000468591 0.000000000262335 0.000000000584305 0.000000000721224 0.000000000394471 0.000000000652263 0.000000000898564 0.000000000133994 0.000000001391869 0.000000000988675 0.000000000092325 0.000000000054748 0.000000000472602 0.000000000615583 0.000000000585296 0.000000001562323 0.000000000600729 0.000000000364319 0.000000000222650 0.000000000811206 0.000000000064972 0.000000000366242 0.000000002267106 0.000000001104174 0.000000000102124 0.000000000228104 -0.000000000099641 0.000000000579999 0.000000001045754 0.000000000760805 0.000000000827758 0.000000000696786 0.000000000506833 0.000000000337827 0.000000000053042 0.000000000900988 0.000000001113396 0.000000001410262 0.000000000383979 0.000000001063477 0.000000000049020 0.000000000850885 0.000000002182109 0.000000000530335 0.000000000506843 0.000000001314144 0.000000000225488 0.000000000524997 0.000000000230784 0.000000001722606 0.000000000044671 0.000000000029115 0.000000000557527 0.000000000345038 0.000000000557647 0.000000000051648 0.000000000199899 0.000000000981385 0.000000000032239 0.000000002974956 0.000000000319578 0.000000000605328 0.000000003032900 0.000000000041884 0.000000000891561 0.000000000255739 0.000000000088043 0.000000000610530 0.000000000231281 0.000000000698335 0.000000000734363 0.000000000106308 0.000000000460227 0.000000000752805 0.000000001180120 0.000000000315743 0.000000000424152 0.000000000454484 0.000000000447841 0.000000000412401 0.000000000990084 0.000000001015101 0.000000000808344 0.000000000453535 0.000000000673043 0.000000000955410 0.000000000622413 0.000000000957592 0.000000000126058 0.000000002190627 0.000000000222625 0.000000000606653 0.000000001040497 0.000000000563207 0.000000000156988 0.000000000235145 0.000000000996590 0.000000000221601 0.000000000357568 0.000000000648671 0.000000001153095 0.000000000512810 0.000000000405525 0.000000000156841 0.000000000618892 0.000000000085126 0.000000000219068 0.000000000568415 0.000000000326690 0.000000000959971 0.000000001013068 0.000000000788204 0.000000000088172 0.000000001061894 0.000000000503967 0.000000000344802 0.000000001108650 0.000000001228737 0.000000000470029 0.000000000792609 0.000000000588712 0.000000000482074 0.000000000290736 0.000000001862076 0.000000002609184 0.000000000600475 0.000000000910604 0.000000000096737 0.000000000258290 0.000000001136350 
				</DataArray>
				<DataArray type="Float64" Name="v" format="ascii">