<VTKFile type="UnstructuredGrid" version="1.0" byte_order="LittleEndian" header_type="UInt64">
	<UnstructuredGrid>
		<FieldData>
			<DataArray type="Float64" Name="TimeValue" NumberOfTuples="1" format="ascii"> 0.04 </DataArray>
		</FieldData>
		<Piece NumberOfPoints="610" NumberOfCells="1134">
			<PointData>
				<DataArray type="Float64" Name="pressure" format="ascii">
					10273.485331150526690 0.000000000000000 0.000000000000000 10977.271392083341198 0.000000856784337 -0.000000714068769 -0.000000079204444 -0.000000314390415 -0.000000288591653 -0.000000105000687 -0.000000349411074 -0.000000213849597 -0.000000193025732 -0.000000006031648 -0.000000725692188 -0.000000087332083 -0.000000233948550 -0.000000223605594 -0.000000258425297 -0.000000053467355 -0.000000265702951 -0.000000103897955 -0.000000716242600 -0.000000145619500 0.000000000000000 0.000000000000000 0.000000000000000 0.000000000000000 0.000000000000000 0.000000000000000 0.000000000000000 0.000000000000000 0.000000000000000 0.000000000000000 0.000000000000000 0.000000000000000 0.000000000000000 0.000000000000000 0.000000000000000 0.000000000000000 0.000000000000000 0.000000000000000 0.000000000000000 0.000000000000000 0.000000153621046 0.000000714026693 0.000000077933889 0.000000249469022 0.000000056439263 0.000000255683070 0.000000223605612 0.000000233948533 0.000000087332093 0.000000725692200 0.000000006031654 0.000000193082126 0.000000213579470 0.000000346674720 0.000000093776522 0.000000303433241 0.000000354167947 0.000000095598895 0.000000715932925 0.000000763922325 4977.312266766835819 14780.351488087020698 4484.607354076153570 8659.585786309189643 4473.533762736164135 7969.368256777946954 7447.747194447303627 7390.895965602649085 4692.281699283007583 15475.192361650100793 3985.143179108015829 8320.344349176140895 8453.427187130977472 8103.097012470873779 5584.478599846743236 9745.131861166299132 8212.845538185663827 4794.353011491100915 14847.075055256969790 5063.761844740108245 0.000000072831942 0.000000027766404 -0.000000034593265 -0.000000076295271 0.000000074919706 -0.000000068309569 0.000000004667214 0.000000102588540 -0.000000085279383 -0.000000024921299 -0.000000133278477 -0.000000003870380 0.000000138849419 0.000000051138110 -0.000000040878440 -0.000000075655184 0.000000005619840 -0.000000084580363 0.000000078873551 -0.000000030920401 0.000000071265538 0.000000067870704 -0.000000063212200 0.000000106071624 0.000000128637047 -0.000000027154826 -0.000000051457424 -0.000000083410399 0.000000070088818 0.000000077742004 -0.000000082699331 -0.000000028932515 -0.000000126919740 -0.000000098116945 0.000000194545989 0.000000172819195 -0.000000055712732 0.000000016169120 -0.000000114826525 -0.000000106741366 0.000000029852695 -0.000000096329010 0.000000119071498 0.000000026687619 -0.000000107429020 0.000000059009858 0.000000090910751 -0.000000013146645 -0.000000106279426 0.000000015757111 -0.000000107494094 0.000000190642186 -0.000000076538225 0.000000111521296 0.000000070852258 0.000000186516613 0.000000097539321 0.000000027603060 0.000000036380900 -0.000000029237188 0.000000153144933 0.000000091339867 -0.000000049085349 -0.000000073612912 -0.000000092297725 0.000000040481941 0.000000150777117 -0.000000018888461 -0.000000145459439 0.000000043692504 0.000000120281570 -0.000000041167997 -0.000000098229660 0.000000067968651 0.000000041834548 -0.000000097809461 -0.000000068047909 0.000000005353362 0.000000027943445 0.000000138810621 -0.000000120129276 0.000009448687442 0.000000124517359 -0.000000034008817 0.000000181336518 -0.000000161984729 -0.000000053303369 -0.000000018022429 -0.000000021827955 -0.000000087319226 0.000000059853510 0.000000153490866 -0.000000099687698 0.000000078665123 0.000000120029528 -0.000000116625677 -0.000000094222629 0.000000409530440 0.000000377868675 -0.000000081084232 0.000000052671974 0.000001189750614 0.000000012097345 0.000000125428384 -0.000000012097348 -0.000000024081207 0.000000118680359 0.000000129613773 0.000000220719138 0.000000095081726 0.000000052050836 -0.000000047809123 -0.000000077067273 0.000000515055784 0.000000076491597 0.000000078345025 0.000000076643273 -0.000000019962314 -0.000000106568283 0.000000128855739 -0.000000136702986 0.000000131908720 0.000000026478735 -0.000000029724239 -0.000000085719773 0.000000086054182 -0.000000063091660 0.000000032077671 0.000000065662609 -0.000000024655996 -0.000000056985736 -0.000000078047778 0.000000049952232 0.000000076008442 0.000000061202662 0.000000061119134 -0.000000061455395 0.000000093700190 -0.000000097385619 -0.000000043017178 0.000000072000970 0.000000065301241 -0.000000065288673 0.000003643421575 0.000000071840083 -0.000000084375854 -0.000000048962742 -0.000000007287365 0.000000107170633 -0.000000111487219 0.000000101862044 0.000000092159712 0.000000118983506 0.000010657612854 -0.000000091090789 -0.000000120667500 -0.000000063308280 0.000000010664735 -0.000000129559542 -0.000000064196489 -0.000000041846960 0.000000153333157 -0.000000166893737 0.000000063236845 0.000000164889514 -0.000000129500506 0.000000110742293 -0.000000093262908 -0.000000050161623 -0.000000094183622 -0.000000027917181 -0.000000186061041 -0.000000117010359 0.000000175946970 -0.000000189008649 0.000000185037158 -0.000000037208530 -0.000000074838591 0.000000058614721 0.000000138767956 0.000000131490077 -0.000000119099748 -0.000000323745045 0.000000127066138 -0.000000189250355 -0.000000111947673 -0.000000082924187 -0.000000008973155 -0.000000149900415 -0.000000153852321 -0.000000197768976 -0.000000127739155 0.000000196604311 0.000010422658715 0.000000107569934 0.000000004871543 -0.000000152516473 -0.000000117922417 0.000000117922411 -0.000000066082485 0.000000117790282 -0.000000201079432 0.000000005204129 0.000000004717092 -0.000000001439209 -0.000000002682443 -0.000000041571807 -0.000000107892970 -0.000000083496246 -0.000000051246075 -0.000000029686965 -0.000000116697222 0.000000047506893 -0.000000044522982 0.000000025554927 -0.000000093713160 -0.000000094508520 0.000002883248017 0.000000107881151 -0.000000033357881 -0.000000033497814 0.000000095279397 0.000000018550022 0.000004778324216 0.000009368813759 0.000000026838497 -0.000000018430388 -0.000000126899472 0.000000089522444 0.000000013547737 -0.000000129129440 0.000000159258127 0.000000044025827 -0.000000068939482 -0.000000141402670 -0.000000001681645 0.000000113866737 0.000000046878138 -0.000000030024428 -0.000000070974736 0.000000128983212 -0.000000144455797 -0.000000115305900 0.000000024229650 -0.000000074451284 0.000000026982639 0.000000098423885 0.000000036721741 0.000012436992827 0.000000194956401 -0.000000000000004 0.000007499992430 -0.000000194956399 0.000000048580256 0.000000007817427 -0.000000137264874 0.000000046110593 0.000000105115292 -0.000000072531381 0.000000043993770 -0.000000053105711 0.000000076883249 0.000000106575046 0.000000046816365 0.000005116816238 -0.000000047181949 0.000004190652935 -0.000000134921950 0.000000079124487 0.000006550113391 -0.000000058059280 0.000000056753454 0.000000089366245 0.000000088050652 -0.000000122470903 0.000000062630644 0.000000029729839 0.000000059584677 0.000000062871010 -0.000000051077531 0.000000064443637 0.000000034550634 0.000000092458114 0.000000155266852 0.000000119814394 0.000000072309451 0.000000088016988 0.000000147993831 -0.000000034274350 0.000000157363147 -0.000000155882823 -0.000000026851136 0.000000116727973 -0.000000008720279 0.000000039218970 -0.000000136773210 -0.000000110906204 -0.000000132730875 -0.000000137372188 0.000000018650454 -0.000000078848874 -0.000000092083700 -0.000000104079987 0.000000193721656 -0.000000017074065 -0.000000190408976 -0.000000096327035 0.000000120060192 -0.000000074539745 0.000000096008023 0.000000138243197 -0.000000025253387 0.000000077390273 0.000000130235063 0.000000107320260 -0.000000061070400 0.000000165794656 0.000000126285211 0.000000173471835 0.000000033001708 -0.000000022367911 -0.000000174688504 -0.000000060660486 0.000000205514059 0.000000070913748 0.000000143397608 -0.000000101969989 0.000010580751911 0.000000171873031 -0.000000173375960 -0.000000025957024 0.000000071361193 0.000000046274136 0.000000015121592 -0.000000015720482 -0.000000153470517 0.000000091166005 -0.000000081172339 0.000000086497535 -0.000000106338230 -0.000000069412701 0.000000037871131 -0.000000102186629 0.000000136714365 -0.000000102945441 -0.000000104039727 -0.000000260826584 0.000000050779679 -0.000000136868912 -0.000000109583007 0.000000054906849 -0.000000142327949 -0.000000072531127 -0.000000017929267 -0.000000186630457 -0.000000083348552 -0.000000024952303 -0.000000076289574 0.000000077788634 -0.000000078810476 -0.000000041503060 -0.000000073619489 -0.000000072129370 0.000000137538928 0.000000070388313 -0.000000080619539 -0.000000081809184 -0.000000075904934 -0.000000073256267 -0.000000022002211 -0.000000048839884 -0.000000046490737 0.000000086237050 -0.000000081863356 0.000000019388007 -0.000000147554506 -0.000000092649364 0.000000128631163 -0.000000107124982 -0.000000079297926 0.000000053009959 0.000000059310435 0.000000079738567 0.000000094459468 0.000000107729375 -0.000000040399586 0.000000042386437 -0.000000028660840 0.000000075593894 0.000000115082762 -0.000000129142860 0.000000200925270 0.000000112095796 0.000000079648034 0.000000141014214 -0.000000026865529 0.000000036122661 0.000000152730456 0.000000149236259 0.000000004930480 -0.000000084115446 -0.000000055757929 -0.000000064667895 -0.000000027852377 0.000000029638302 0.000000127376048 -0.000000095943320 0.000000169582696 0.000001181961247 0.000000874325478 -0.000000034639587 0.000000058740264 -0.000000069020887 0.000000065805460 -0.000000065273908 -0.000000136118012 0.000000086569197 -0.000000110850637 0.000000003013003 0.000000143221386 0.000000005055458 -0.000000092732636 0.000000458169125 -0.000000099578096 -0.000000100763874 0.000000072256256 0.000000067194799 0.000000101609052 0.000000071697517 -0.000000023410298 -0.000000181324674 0.000000120414336 -0.000000001619326 -0.000000142680440 0.000000152549708 0.000000228586875 -0.000000000000004 -0.000000230746789 0.000013701794403 -0.000000011516260 0.000000055782412 -0.000000057071196 0.000000188867928 -0.000000114868484 0.000020014119085 0.000018781922779 0.000000328747773 -0.000000000000006 -0.000000126849300 0.000000116527705 -0.000000122865372 0.000000140985093 -0.000000080007268 -0.000000071821445 -0.000000169425594 0.000009867196539 0.000000092854676 -0.000000243600446 0.000015180992977 -0.000000000000004 0.000000243358687 -0.000000028906980 0.000000191905933 -0.000000194287873 -0.000000164075023 0.000000316781593 0.000000137623733 -0.000000064412136 -0.000000136993140 -0.000000166815192 0.000000164955742 0.000000229091825 0.000000079167933 -0.000000192990154 0.000000193396978 -0.000000035510199 0.000000202727738 -0.000000086910364 -0.000000132651906 0.000000130678241 -0.000000127802515 0.000000116491759 0.000000074229730 -0.000000060887074 0.000000212339196 0.000000159821802 0.000000338818597 -0.000000328878684 0.000000204698137 0.000000005846197 -0.000000191873649 0.000000288172519 0.000000205696151 -0.000000164127788 0.000000048050926 -0.000000043102616 -0.000000261750895 -0.000000010710614 0.000000016169564 -0.000000229712364 -0.000000135909112 -0.000000006054195 -0.000000004741797 -0.000000208428405 -0.000000209711267 -0.000000175846397 0.000000121171623 0.000000009672826 -0.000000100174945 0.000000533590661 -0.000000009671423 0.000000068949432 -0.000000093449183 -0.000000012398766 0.000000055879291 -0.000000060843548 0.000000082460790 -0.000000064222004 0.000000126194022 -0.000000061568480 0.000000139144553 0.000000005533248 -0.000000002839246 0.000000128413225 0.000000019372089 -0.000000074922700 
				</DataArray>
				<DataArray type="Float64" Name="u" format="ascii">
					-0.000000000000002 0.000000000000001 0.000000000000001 -0.000000000000001 -0.000000003109099 -0.000000000130248 0.000000000843962 0.000000001118715 0.000000001196897 0.000000001191548 0.000000001158564 0.000000001107318 0.000000001045881 0.000000000975976 0.000000000901837 0.000000000821527 0.000000000738097 0.000000000651044 0.000000000561556 0.000000000470190 0.000000000377764 0.000000000284091 0.000000000189764 0.000000000094933 0.000000000000000 0.000000000000000 0.000000000000002 0.000000000000000 -0.000000000000001 0.000000000000001 0.000000000000000 -0.000000000000000 -0.000000000000001 0.000000000000003 -0.000000000000003 0.000000000000004 0.000000000000000 -0.000000000000002 0.000000000000001 0.000000000000000 -0.000000000000002 0.000000000000001 0.000000000000003 -0.000000000000001 0.000000000074676 0.000000000149392 0.000000000224280 0.000000000299418 0.000000000375163 0.000000000451480 0.000000000529134 0.000000000608631 0.000000000691645 0.000000000778191 0.000000000872776 0.000000000974631 0.000000001094025 0.000000001236796 0.000000001430063 0.000000001681354 0.000000002098218 0.000000002911047 0.000000004493219 0.000000008296062 -0.000000000000000 0.000000000000000 -0.000000000000004 0.000000000000001 0.000000000000004 -0.000000000000007 0.000000000000001 -0.000000000000000 -0.000000000000000 0.000000000000000 -0.000000000000000 0.000000000000002 0.000000000000001 -0.000000000000000 0.000000000000002 0.000000000000001 -0.000000000000001 0.000000000000000 -0.000000000000000 0.000000000000001 0.000000001475648 0.000000000355046 0.000000000404830 0.000000000721834 0.000000000616443 0.000000001367051 0.000000001063289 0.000000000386259 0.000000000265308 0.000000000241128 0.000000001563949 0.000000000628474 0.000000000549110 0.000000000810732 0.000000001804174 0.000000002247278 0.000000000827450 0.000000000829033 0.000000000629170 0.000000000234657 0.000000000805724 0.000000000153098 0.000000000582013 0.000000000171334 0.000000000883207 0.000000000907815 0.000000000210800 0.000000000856712 0.000000001749246 0.000000001132891 0.000000001207807 0.000000000221342 0.000000000153252 0.000000002268459 0.000000001180105 0.000000000808483 0.000000000995537 0.000000000363688 0.000000000952990 0.000000001394905 0.000000000335455 0.000000000899682 0.000000000644366 0.000000001221390 0.000000000834946 0.000000002101983 0.000000000703455 0.000000000637460 0.000000000115579 0.000000000505791 0.000000000514956 0.000000000805188 0.000000001238641 0.000000000537940 0.000000000669373 0.000000000831695 0.000000001044190 0.000000000360559 0.000000001461306 0.000000001097550 0.000000000918650 0.000000002812723 0.000000000901345 0.000000000590283 0.000000000695317 0.000000000576670 0.000000000206784 0.000000001168612 0.000000000717886 0.000000000520082 0.000000001306515 0.000000001940404 0.000000000869425 0.000000000807121 0.000000000452427 0.000000001186788 0.000000001569856 0.000000000201084 0.000000000453591 0.000000001065213 0.000000001246614 -0.000000000128844 0.000000001185632 0.000000000463235 0.000000001159429 0.000000000465918 0.000000000158013 0.000000000656706 0.000000000250917 0.000000000509012 0.000000001783471 0.000000000839854 0.000000001430117 0.000000000693619 0.000000000769775 0.000000001667442 0.000000000699965 0.000000004082934 0.000000000404578 0.000000000091210 0.000000000116872 0.000000001208042 0.000000000697826 0.000000000100793 0.000000000845008 0.000000000315442 0.000000001350499 0.000000000248702 0.000000000715095 0.000000001803463 0.000000000536448 0.000000000396457 0.000000001298661 0.000000004185228 0.000000001233762 0.000000000113622 0.000000000800872 0.000000001002705 0.000000001746572 0.000000000319930 0.000000000433692 0.000000000821789 0.000000001115017 0.000000000192744 0.000000000302587 0.000000001017576 0.000000001149922 0.000000000412651 0.000000001298571 0.000000001337201 0.000000000621522 0.000000000635137 0.000000001416195 0.000000001060679 0.000000001171450 0.000000002966037 0.000000000944044 0.000000000233236 0.000000000578664 0.000000001011002 0.000000001649079 0.000000001038688 0.000000000932327 0.000000004358671 0.000000000086970 0.000000000933552 0.000000000367252 0.000000000881241 0.000000000263410 0.000000000079486 0.000000000149098 0.000000002251522 0.000000000061147 0.000000001158868 0.000000000189951 0.000000000688415 0.000000000679806 0.000000001027426 0.000000000898685 0.000000001487059 0.000000000844092 0.000000000169525 0.000000000670679 0.000000000546937 0.000000001548703 0.000000001354280 0.000000001241391 0.000000001111522 0.000000000759688 0.000000001927691 0.000000000380284 0.000000002737117 0.000000001000350 0.000000000802967 0.000000000928525 0.000000000406119 0.000000001174446 0.000000000526110 0.000000001683162 0.000000000694230 0.000000000825100 0.000000000297313 0.000000000817008 0.000000000512144 0.000000000857285 0.000000000961415 0.000000000725506 0.000000000861978 0.000000002186222 0.000000001132453 0.000000000616945 0.000000000053864 0.000000000496260 0.000000000230194 0.000000000646368 0.000000000635786 0.000000000811520 0.000000000910012 0.000000000773516 0.000000000071448 0.000000001794696 0.000000001613099 0.000000000231269 0.000000000582195 0.000000000305455 0.000000001379834 0.000000001363417 0.000000000845301 0.000000000462873 0.000000001249384 0.000000001589494 0.000000000495931 0.000000000670252 0.000000000511012 0.000000001216111 0.000000000077747 0.000000000700196 0.000000000784710 0.000000000567471 0.000000000177106 0.000000001010714 0.000000000197338 0.000000000550372 0.000000000157851 -0.000000001273796 0.000000000068717 0.000000000437846 0.000000001118627 0.000000001255383 0.000000000398416 0.000000001058763 0.000000001450910 0.000000000294450 0.000000000801424 0.000000000765814 0.000000001179677 0.000000000627711 0.000000000740781 0.000000000457724 0.000000001617500 0.000000000387771 0.000000001062020 0.000000000621845 0.000000000824697 0.000000001966138 0.000000000954545 0.000000000229261 0.000000000817534 0.000000000671375 0.000000000773904 0.000000000063820 0.000000003804186 0.000000000636644 0.000000001507936 0.000000001322450 0.000000000791002 0.000000001430610 0.000000000065255 0.000000001984763 0.000000000337034 0.000000001082802 0.000000002400424 0.000000000083668 0.000000001143022 0.000000003701898 0.000000001118923 -0.000000001015653 0.000000000078566 0.000000001318921 0.000000002681423 0.000000000271839 0.000000001274145 0.000000000743752 0.000000000900791 0.000000000858995 0.000000001129939 0.000000001126267 0.000000000715997 0.000000001216239 0.000000000709459 0.000000001260003 0.000000000515153 0.000000000608669 0.000000001049250 0.000000000951212 0.000000000695785 0.000000000995641 0.000000000285140 0.000000002333909 0.000000001092309 0.000000000806768 0.000000000291870 0.000000000925942 0.000000000907147 0.000000001276474 0.000000000225753 0.000000000516074 0.000000001490128 0.000000000642489 0.000000000339705 0.000000000637361 0.000000000177482 0.000000000565884 0.000000000222909 0.000000001353132 0.000000000509172 0.000000000769263 0.000000002603804 0.000000000864348 0.000000001186106 0.000000000308742 0.000000000883224 0.000000001970165 0.000000001240864 0.000000001438235 0.000000002077002 0.000000001500569 0.000000000296056 0.000000002308645 0.000000001197735 0.000000000441194 0.000000000168787 0.000000000431390 0.000000000400777 0.000000002280110 0.000000000878779 0.000000001919373 0.000000000371069 0.000000000739555 0.000000000571087 0.000000000258886 0.000000001379377 0.000000001300398 0.000000000945750 0.000000001479883 0.000000002457188 0.000000000736098 0.000000000371177 0.000000000468291 0.000000000431425 0.000000001742389 0.000000001003506 0.000000000288368 0.000000000654424 0.000000001320910 0.000000000853462 0.000000001423680 0.000000000127352 0.000000001163022 0.000000000224268 0.000000000792885 0.000000000553708 0.000000001302488 0.000000000827707 0.000000000459632 0.000000000339287 0.000000000691764 0.000000000264923 0.000000000288298 0.000000000529892 0.000000001405721 0.000000003119552 0.000000001076440 0.000000001696985 0.000000000884902 0.000000000196852 0.000000002062516 0.000000000841922 0.000000000396347 0.000000000546931 0.000000001546612 0.000000000719416 0.000000000420677 0.000000000317635 0.000000001128750 0.000000000901383 0.000000000804970 0.000000001104066 0.000000000760108 0.000000001415253 0.000000001083933 0.000000001094684 0.000000000761089 0.000000000945196 0.000000000577998 0.000000000769007 0.000000000614610 0.000000000140125 0.000000002263030 0.000000001601839 0.000000001637961 0.000000000402988 0.000000001441822 0.000000000508540 0.000000000537387 0.000000002323479 0.000000000593325 0.000000000407962 0.000000000929871 0.000000000952763 0.000000000552384 0.000000000934199 0.000000001244254 0.000000000213285 0.000000001621428 0.000000001794177 0.000000000118090 0.000000000085549 0.000000000584064 0.000000000897614 0.000000000851730 0.000000002053706 0.000000000958562 0.000000000466702 0.000000000346768 0.000000001418278 0.000000000097664 0.000000000462518 0.000000003053499 0.000000001305114 0.000000000132974 0.000000000364935 -0.000000000110400 0.000000000852457 0.000000001458526 0.000000000993638 0.000000001106498 0.000000000994160 0.000000000763484 0.000000000470169 0.000000000070211 0.000000001199295 0.000000001538591 0.000000001880196 0.000000000600879 0.000000001232500 0.000000000064082 0.000000001501544 0.000000002881118 0.000000000695487 0.000000000761543 0.000000001710539 0.000000000339385 0.000000000757890 0.000000000420442 0.000000002725632 0.000000000056563 0.000000000046344 0.000000000702602 0.000000000554139 0.000000000816499 0.000000000066921 0.000000000319980 0.000000001764035 0.000000000049032 0.000000004123064 0.000000000403482 0.000000001022793 0.000000004179937 0.000000000056380 0.000000001084331 0.000000000353702 0.000000000137063 0.000000000755520 0.000000000293658 0.000000001195552 0.000000000916845 0.000000000147231 0.000000000751285 0.000000000973860 0.000000001652627 0.000000000458644 0.000000000632126 0.000000000667635 0.000000000607238 0.000000000557022 0.000000001306825 0.000000001331959 0.000000001108516 0.000000000706305 0.000000000909275 0.000000001305326 0.000000001043920 0.000000001173344 0.000000000168308 0.000000003013632 0.000000000285735 0.000000000933042 0.000000001307302 0.000000000837695 0.000000000245313 0.000000000343710 0.000000001371063 0.000000000317471 0.000000000544151 0.000000000925084 0.000000001533950 0.000000000686175 0.000000000590356 0.000000000227401 0.000000000880548 0.000000000125911 0.000000000324641 0.000000000810298 0.000000000497584 0.000000001334535 0.000000001365551 0.000000000976708 0.000000000120960 0.000000001463315 0.000000000831777 0.000000000459058 0.000000001436379 0.000000001693542 0.000000000747812 0.000000001006044 0.000000000948840 0.000000000616713 0.000000000456424 0.000000002454428 0.000000003599022 0.000000001007710 0.000000001114621 0.000000000129990 0.000000000335889 0.000000001444416 
				</DataArray>
				<DataArray type="Float64" Name="v" format="ascii">