<VTKFile type="UnstructuredGrid" version="1.0" byte_order="LittleEndian" header_type="UInt64">
	<UnstructuredGrid>
		<FieldData>
			<DataArray type="Float64" Name="TimeValue" NumberOfTuples="1" format="ascii"> 0.09999999999999999 </DataArray>
		</FieldData>
		<Piece NumberOfPoints="610" NumberOfCells="1134">
			<PointData>
				<DataArray type="Float64" Name="pressure" format="ascii">
					10599.709909072502342 0.000000000000000 0.000000000000000 11325.844014424425040 0.000000898856144 -0.000000736743305 -0.000000079246608 -0.000000314895134 -0.000000289677800 -0.000000105063203 -0.000000350263473 -0.000000214209737 -0.000000193328713 -0.000000006033596 -0.000000748735814 -0.000000087374710 -0.000000234702172 -0.000000224123563 -0.000000259044521 -0.000000053484708 -0.000000266012805 -0.000000104000278 -0.000000738986151 -0.000000145658392 0.000000000000000 0.000000000000000 0.000000000000000 0.000000000000000 0.000000000000000 0.000000000000000 0.000000000000000 0.000000000000000 0.000000000000000 0.000000000000000 0.000000000000000 0.000000000000000 0.000000000000000 0.000000000000000 0.000000000000000 0.000000000000000 0.000000000000000 0.000000000000000 0.000000000000000 0.000000000000000 0.000000153671879 0.000000736699893 0.000000077982540 0.000000249671260 0.000000056454966 0.000000256287876 0.000000224123563 0.000000234702172 0.000000087374710 0.000000748735813 0.000000006033596 0.000000193385453 0.000000213937992 0.000000347542698 0.000000093820295 0.000000304630343 0.000000354781381 0.000000095635457 0.000000738666642 0.000000789785999 4978.255630044841382 15249.687233404310973 4486.994901497178034 8671.636874138433996 4474.600857982506568 7984.238159735035879 7462.704970524559030 7410.861727077442993 4694.623633247862927 15966.592105417084895 3986.409588582861034 8333.410372527156142 8467.492216835526051 8123.468964207745557 5587.313004866896335 9783.200439760797963 8228.794726581920258 4799.070783596758702 15318.529542811176725 5065.110208237621009 0.000000072832340 0.000000027766556 -0.000000034595416 -0.000000076301518 0.000000074923236 -0.000000068315352 0.000000004667791 0.000000102592514 -0.000000085285649 -0.000000024922225 -0.000000133282668 -0.000000003870509 0.000000138853083 0.000000051141836 -0.000000040879283 -0.000000075656395 0.000000005619950 -0.000000084581869 0.000000078874362 -0.000000030920834 0.000000071277073 0.000000067871402 -0.000000063213759 0.000000106076250 0.000000128646131 -0.000000027154985 -0.000000051459934 -0.000000083415614 0.000000070096686 0.000000077747424 -0.000000082704786 -0.000000028932887 -0.000000126928136 -0.000000098134458 0.000000194579501 0.000000172852875 -0.000000055729077 0.000000016171635 -0.000000114834239 -0.000000106747278 0.000000029853211 -0.000000096330844 0.000000119082149 0.000000026691290 -0.000000107433698 0.000000059012228 0.000000090912246 -0.000000013147914 -0.000000106286166 0.000000015758606 -0.000000107501225 0.000000190679198 -0.000000076540351 0.000000111524303 0.000000070854832 0.000000186544446 0.000000097541309 0.000000027604676 0.000000036385020 -0.000000029237967 0.000000153153540 0.000000091342499 -0.000000049089509 -0.000000073613668 -0.000000092298776 0.000000040484456 0.000000150829233 -0.000000018889164 -0.000000145466009 0.000000043699014 0.000000120288003 -0.000000041171905 -0.000000098235910 0.000000067970470 0.000000041836715 -0.000000097812134 -0.000000068048614 0.000000005353429 0.000000027945372 0.000000138823380 -0.000000120156358 0.000009488834797 0.000000124547855 -0.000000034014390 0.000000181415935 -0.000000162044490 -0.000000053305228 -0.000000018023109 -0.000000021828625 -0.000000087326807 0.000000059859173 0.000000153519121 -0.000000099688947 0.000000078669522 0.000000120038161 -0.000000116628005 -0.000000094223910 0.000000409724234 0.000000378075167 -0.000000081085870 0.000000052673210 0.000001190887358 0.000000012098096 0.000000125436030 -0.000000012098096 -0.000000024082883 0.000000118688523 0.000000129633257 0.000000220759136 0.000000095085191 0.000000052052312 -0.000000047811576 -0.000000077070186 0.000000515510664 0.000000076493980 0.000000078347480 0.000000076644193 -0.000000019962560 -0.000000106584980 0.000000128874581 -0.000000136730297 0.000000131941394 0.000000026478996 -0.000000029724546 -0.000000085720649 0.000000086055101 -0.000000063096372 0.000000032085234 0.000000065665295 -0.000000024656803 -0.000000056986663 -0.000000078048473 0.000000049952579 0.000000076008830 0.000000061204710 0.000000061121270 -0.000000061457871 0.000000093703269 -0.000000097387095 -0.000000043019488 0.000000072007144 0.000000065302388 -0.000000065289820 0.000003650173061 0.000000071841361 -0.000000084388669 -0.000000048963559 -0.000000007288193 0.000000107172963 -0.000000111509648 0.000000101882449 0.000000092172723 0.000000118999965 0.000011062198267 -0.000000091103393 -0.000000120673200 -0.000000063310754 0.000000010679355 -0.000000129579571 -0.000000064202367 -0.000000041854135 0.000000153359689 -0.000000166947492 0.000000063245630 0.000000164912322 -0.000000129507992 0.000000110746331 -0.000000093265140 -0.000000050165940 -0.000000094190159 -0.000000027917819 -0.000000186088897 -0.000000117015192 0.000000175967759 -0.000000189039398 0.000000185059817 -0.000000037213863 -0.000000074842815 0.000000058617756 0.000000138805801 0.000000131504040 -0.000000119119287 -0.000000324067375 0.000000127093424 -0.000000189289662 -0.000000111957476 -0.000000082934035 -0.000000008973771 -0.000000149912293 -0.000000153861861 -0.000000197814583 -0.000000127762781 0.000000196648753 0.000010465329031 0.000000107583392 0.000000004871865 -0.000000152538538 -0.000000117927809 0.000000117927809 -0.000000066085390 0.000000117814961 -0.000000201114780 0.000000005205408 0.000000004718407 -0.000000001439586 -0.000000002682845 -0.000000041572696 -0.000000107895413 -0.000000083497993 -0.000000051247183 -0.000000029688214 -0.000000116702016 0.000000047507600 -0.000000044523708 0.000000025555485 -0.000000093715405 -0.000000094510965 0.000002893489430 0.000000107885694 -0.000000033358211 -0.000000033498161 0.000000095287341 0.000000018550279 0.000004790756424 0.000009388380934 0.000000026839839 -0.000000018430629 -0.000000126906833 0.000000089523850 0.000000013547850 -0.000000129139337 0.000000159288210 0.000000044027089 -0.000000068942970 -0.000000141420289 -0.000000001681698 0.000000113872463 0.000000046879899 -0.000000030025007 -0.000000070982216 0.000000128993754 -0.000000144478741 -0.000000115321739 0.000000024232303 -0.000000074459938 0.000000026983004 0.000000098425107 0.000000036732050 0.000012872052529 0.000000195007747 -0.000000000000000 0.000007532214912 -0.000000195007747 0.000000048580910 0.000000007818055 -0.000000137278609 0.000000046111864 0.000000105120911 -0.000000072535955 0.000000043995729 -0.000000053109868 0.000000076885704 0.000000106581169 0.000000046819039 0.000005133472599 -0.000000047184915 0.000004202054830 -0.000000134934380 0.000000079131754 0.000006563909108 -0.000000058062968 0.000000056758104 0.000000089368442 0.000000088056243 -0.000000122477422 0.000000062632434 0.000000029732403 0.000000059589471 0.000000062872997 -0.000000051079665 0.000000064447122 0.000000034551713 0.000000092459937 0.000000155279808 0.000000119821264 0.000000072314177 0.000000088024418 0.000000148013230 -0.000000034282831 0.000000157400502 -0.000000155927730 -0.000000026860064 0.000000116740395 -0.000000008721007 0.000000039221241 -0.000000136781185 -0.000000110908245 -0.000000132739183 -0.000000137384462 0.000000018653202 -0.000000078864358 -0.000000092086306 -0.000000104084911 0.000000193755288 -0.000000017077033 -0.000000190440577 -0.000000096331320 0.000000120066789 -0.000000074544103 0.000000096026403 0.000000138270038 -0.000000025256421 0.000000077393378 0.000000130270528 0.000000107324976 -0.000000061079171 0.000000165824876 0.000000126291339 0.000000173492778 0.000000033007236 -0.000000022369932 -0.000000174706852 -0.000000060661956 0.000000205567548 0.000000070917012 0.000000143413218 -0.000000101990499 0.000010979341291 0.000000171890037 -0.000000173392200 -0.000000025958336 0.000000071362877 0.000000046277405 0.000000015121786 -0.000000015721134 -0.000000153503427 0.000000091167623 -0.000000081174363 0.000000086499545 -0.000000106343132 -0.000000069415653 0.000000037871685 -0.000000102191168 0.000000136724566 -0.000000102951196 -0.000000104042934 -0.000000260972125 0.000000050780760 -0.000000136873593 -0.000000109589115 0.000000054926034 -0.000000142341787 -0.000000072533366 -0.000000017929376 -0.000000186646221 -0.000000083354605 -0.000000024952842 -0.000000076290046 0.000000077791578 -0.000000078811455 -0.000000041503577 -0.000000073622763 -0.000000072133029 0.000000137566154 0.000000070392410 -0.000000080624299 -0.000000081810747 -0.000000075906307 -0.000000073257562 -0.000000022002489 -0.000000048841205 -0.000000046496340 0.000000086238879 -0.000000081865251 0.000000019389474 -0.000000147567112 -0.000000092657264 0.000000128643315 -0.000000107132555 -0.000000079300669 0.000000053011740 0.000000059312858 0.000000079740523 0.000000094463458 0.000000107734226 -0.000000040400042 0.000000042386905 -0.000000028663166 0.000000075599008 0.000000115093446 -0.000000129156055 0.000000200981460 0.000000112127414 0.000000079649888 0.000000141030346 -0.000000026869931 0.000000036124130 0.000000152753768 0.000000149254737 0.000000004930538 -0.000000084116374 -0.000000055760492 -0.000000064668360 -0.000000027853066 0.000000029639208 0.000000127381986 -0.000000095946214 0.000000169595141 0.000001184632977 0.000000875135062 -0.000000034639929 0.000000058741921 -0.000000069023001 0.000000065806754 -0.000000065275022 -0.000000136121430 0.000000086570742 -0.000000110860585 0.000000003013108 0.000000143228336 0.000000005055714 -0.000000092737919 0.000000458357338 -0.000000099580710 -0.000000100780145 0.000000072256647 0.000000067196635 0.000000101613496 0.000000071699412 -0.000000023410428 -0.000000181369076 0.000000120427023 -0.000000001619427 -0.000000142690068 0.000000152659573 0.000000228648668 0.000000000000000 -0.000000230810403 0.000013782850697 -0.000000011516909 0.000000055783813 -0.000000057078238 0.000000188896118 -0.000000114887043 0.000020570368070 0.000019262297246 0.000000329025000 0.000000000000000 -0.000000126876643 0.000000116545354 -0.000000122872321 0.000000140992723 -0.000000080013993 -0.000000071824157 -0.000000169445309 0.000009910773814 0.000000092865295 -0.000000243655273 0.000015237245384 0.000000000000000 0.000000243413203 -0.000000028908233 0.000000191944553 -0.000000194328042 -0.000000164108950 0.000000317057365 0.000000137642150 -0.000000064420303 -0.000000137011132 -0.000000166855943 0.000000164976926 0.000000229160874 0.000000079179978 -0.000000193030371 0.000000193429025 -0.000000035514382 0.000000202749711 -0.000000086916201 -0.000000132672656 0.000000130683937 -0.000000127821130 0.000000116501117 0.000000074248228 -0.000000060901724 0.000000212390273 0.000000159872090 0.000000339135498 -0.000000329179706 0.000000204889587 0.000000005846531 -0.000000192049994 0.000000288326015 0.000000205731487 -0.000000164187991 0.000000048054954 -0.000000043103224 -0.000000261871483 -0.000000010714338 0.000000016173095 -0.000000229767787 -0.000000135929479 -0.000000006055353 -0.000000004742703 -0.000000208467306 -0.000000209811779 -0.000000175885006 0.000000121217162 0.000000009673046 -0.000000100177353 0.000000534001197 -0.000000009671645 0.000000068952192 -0.000000093452919 -0.000000012400562 0.000000055880768 -0.000000060846030 0.000000082461949 -0.000000064222534 0.000000126215209 -0.000000061573832 0.000000139150433 0.000000005533448 -0.000000002839356 0.000000128417673 0.000000019372782 -0.000000074924923 
				</DataArray>
				<DataArray type="Float64" Name="u" format="ascii">
					-0.000000000000002 0.000000000000001 0.000000000000001 -0.000000000000001 -0.000000003234430 -0.000000000187771 0.000000000813309 0.000000001100060 0.000000001184373 0.000000001182306 0.000000001151583 0.000000001101811 0.000000001041474 0.000000000972382 0.000000000898927 0.000000000819145 0.000000000736164 0.000000000649475 0.000000000560295 0.000000000469193 0.000000000377005 0.000000000283541 0.000000000189407 0.000000000094755 0.000000000000000 0.000000000000000 0.000000000000002 0.000000000000000 -0.000000000000001 0.000000000000001 0.000000000000000 -0.000000000000000 -0.000000000000001 0.000000000000003 -0.000000000000003 0.000000000000004 0.000000000000000 -0.000000000000002 0.000000000000001 0.000000000000000 -0.000000000000002 0.000000000000001 0.000000000000003 -0.000000000000001 0.000000000075892 0.000000000151829 0.000000000227971 0.000000000304397 0.000000000381508 0.000000000459252 0.000000000538442 0.000000000619617 0.000000000704529 0.000000000793168 0.000000000890255 0.000000000994938 0.000000001117891 0.000000001265162 0.000000001464823 0.000000001724554 0.000000002155591 0.000000002995816 0.000000004630266 0.000000008556643 -0.000000000000000 0.000000000000000 -0.000000000000004 0.000000000000001 0.000000000000004 -0.000000000000007 0.000000000000001 -0.000000000000000 -0.000000000000000 0.000000000000000 -0.000000000000000 0.000000000000002 0.000000000000001 -0.000000000000000 0.000000000000002 0.000000000000001 -0.000000000000001 0.000000000000000 -0.000000000000000 0.000000000000001 0.000000001475297 0.000000000354735 0.000000000411171 0.000000000730889 0.000000000616783 0.000000001370289 0.000000001062903 0.000000000390475 0.000000000264834 0.000000000241390 0.000000001564995 0.000000000629208 0.000000000554105 0.000000000813034 0.000000001807652 0.000000002250635 0.000000000838816 0.000000000827648 0.000000000639212 0.000000000235920 0.000000000813811 0.000000000155435 0.000000000588334 0.000000000173103 0.000000000888592 0.000000000919887 0.000000000211670 0.000000000863613 0.000000001750787 0.000000001157137 0.000000001202470 0.000000000221105 0.000000000153397 0.000000002272411 0.000000001178822 0.000000000820553 0.000000000993171 0.000000000364516 0.000000000956990 0.000000001399012 0.000000000337068 0.000000000898827 0.000000000653423 0.000000001224117 0.000000000845377 0.000000002104385 0.000000000703187 0.000000000636132 0.000000000116529 0.000000000514316 0.000000000517431 0.000000000807924 0.000000001238928 0.000000000539288 0.000000000676345 0.000000000832818 0.000000001048677 0.000000000363226 0.000000001464842 0.000000001119370 0.000000000916725 0.000000002815119 0.000000000916391 0.000000000594328 0.000000000700423 0.000000000579908 0.000000000207453 0.000000001173003 0.000000000730144 0.000000000519229 0.000000001307808 0.000000001943585 0.000000000869467 0.000000000815603 0.000000000454912 0.000000001190268 0.000000001572115 0.000000000200780 0.000000000459542 0.000000001070189 0.000000001275097 -0.000000000131352 0.000000001178698 0.000000000470692 0.000000001159195 0.000000000467233 0.000000000157902 0.000000000663890 0.000000000253780 0.000000000512486 0.000000001785718 0.000000000841312 0.000000001428337 0.000000000697648 0.000000000770224 0.000000001670546 0.000000000702121 0.000000004103564 0.000000000412266 0.000000000092655 0.000000000116672 0.000000001210917 0.000000000710548 0.000000000101270 0.000000000842740 0.000000000315637 0.000000001348239 0.000000000250900 0.000000000719708 0.000000001804286 0.000000000536488 0.000000000400552 0.000000001328597 0.000000004187693 0.000000001226462 0.000000000113674 0.000000000800385 0.000000001004496 0.000000001746883 0.000000000323930 0.000000000433447 0.000000000832370 0.000000001114605 0.000000000195462 0.000000000302185 0.000000001035202 0.000000001152472 0.000000000413349 0.000000001297676 0.000000001340440 0.000000000626966 0.000000000636263 0.000000001417177 0.000000001064066 0.000000001168294 0.000000002970999 0.000000000961766 0.000000000233628 0.000000000586318 0.000000001013313 0.000000001651641 0.000000001034779 0.000000000951176 0.000000004365712 0.000000000087185 0.000000000939332 0.000000000369432 0.000000000884305 0.000000000263233 0.000000000079367 0.000000000151502 0.000000002316645 0.000000000062078 0.000000001163255 0.000000000189607 0.000000000687820 0.000000000688156 0.000000001028383 0.000000000905185 0.000000001490859 0.000000000842215 0.000000000170368 0.000000000682271 0.000000000547495 0.000000001549161 0.000000001356810 0.000000001237964 0.000000001110568 0.000000000770349 0.000000001931434 0.000000000381383 0.000000002739328 0.000000001019468 0.000000000810382 0.000000000927181 0.000000000408126 0.000000001177540 0.000000000530287 0.000000001684834 0.000000000694830 0.000000000834052 0.000000000299038 0.000000000816099 0.000000000515086 0.000000000857733 0.000000000966013 0.000000000728130 0.000000000874022 0.000000002188201 0.000000001136454 0.000000000615548 0.000000000054317 0.000000000504826 0.000000000231369 0.000000000649873 0.000000000635391 0.000000000817044 0.000000000907231 0.000000000788184 0.000000000071727 0.000000001797486 0.000000001616516 0.000000000233588 0.000000000587115 0.000000000305522 0.000000001377483 0.000000001361181 0.000000000854052 0.000000000463900 0.000000001249029 0.000000001589622 0.000000000496252 0.000000000669099 0.000000000519089 0.000000001220745 0.000000000078287 0.000000000698524 0.000000000787051 0.000000000577436 0.000000000178365 0.000000001014385 0.000000000199856 0.000000000549227 0.000000000159412 -0.000000001273862 0.000000000069380 0.000000000445211 0.000000001121151 0.000000001257114 0.000000000401890 0.000000001062733 0.000000001454532 0.000000000298815 0.000000000803218 0.000000000770285 0.000000001184251 0.000000000635197 0.000000000743992 0.000000000462827 0.000000001618251 0.000000000387247 0.000000001081606 0.000000000621776 0.000000000833929 0.000000001967771 0.000000000965373 0.000000000232736 0.000000000823830 0.000000000672814 0.000000000771889 0.000000000064185 0.000000003812852 0.000000000648127 0.000000001511612 0.000000001326357 0.000000000801102 0.000000001432282 0.000000000066128 0.000000002038560 0.000000000336398 0.000000001104645 0.000000002403483 0.000000000083782 0.000000001137442 0.000000003709898 0.000000001143307 -0.000000001018322 0.000000000078503 0.000000001304542 0.000000002687946 0.000000000276284 0.000000001278518 0.000000000745043 0.000000000903329 0.000000000863149 0.000000001130132 0.000000001130549 0.000000000723537 0.000000001217004 0.000000000715603 0.000000001247211 0.000000000516785 0.000000000610359 0.000000001054069 0.000000000956425 0.000000000706516 0.000000000994714 0.000000000286350 0.000000002338085 0.000000001090401 0.000000000820029 0.000000000292644 0.000000000929456 0.000000000906808 0.000000001272454 0.000000000225896 0.000000000521614 0.000000001493351 0.000000000647107 0.000000000344976 0.000000000639806 0.000000000179040 0.000000000569461 0.000000000222836 0.000000001348870 0.000000000514866 0.000000000769307 0.000000002608086 0.000000000878725 0.000000001184083 0.000000000309340 0.000000000887926 0.000000001972782 0.000000001243130 0.000000001442122 0.000000002080571 0.000000001502849 0.000000000298401 0.000000002310942 0.000000001223144 0.000000000440497 0.000000000170766 0.000000000434351 0.000000000402462 0.000000002282785 0.000000000892030 0.000000001903697 0.000000000376589 0.000000000738242 0.000000000580321 0.000000000260620 0.000000001412022 0.000000001298559 0.000000000946979 0.000000001482721 0.000000002460681 0.000000000735157 0.000000000370542 0.000000000472613 0.000000000432907 0.000000001743612 0.000000001006425 0.000000000289350 0.000000000657383 0.000000001316567 0.000000000854255 0.000000001428155 0.000000000128991 0.000000001167384 0.000000000224299 0.000000000806989 0.000000000561934 0.000000001303479 0.000000000842727 0.000000000459581 0.000000000339704 0.000000000693342 0.000000000268486 0.000000000292892 0.000000000530738 0.000000001405936 0.000000003124807 0.000000001073417 0.000000001700267 0.000000000901498 0.000000000197324 0.000000002063877 0.000000000853037 0.000000000401291 0.000000000546619 0.000000001546077 0.000000000725121 0.000000000420797 0.000000000320730 0.000000001130749 0.000000000903475 0.000000000808622 0.000000001109048 0.000000000761022 0.000000001408067 0.000000001090388 0.000000001095376 0.000000000767642 0.000000000950914 0.000000000580036 0.000000000767281 0.000000000625228 0.000000000140952 0.000000002268714 0.000000001603800 0.000000001641632 0.000000000403296 0.000000001440848 0.000000000515578 0.000000000536719 0.000000002325281 0.000000000592268 0.000000000413675 0.000000000944673 0.000000000953368 0.000000000554973 0.000000000939493 0.000000001248058 0.000000000216707 0.000000001611272 0.000000001842336 0.000000000117950 0.000000000086784 0.000000000584897 0.000000000904740 0.000000000858272 0.000000002055034 0.000000000974056 0.000000000466194 0.000000000351671 0.000000001452167 0.000000000098741 0.000000000461618 0.000000003057593 0.000000001297181 0.000000000132955 0.000000000370950 -0.000000000108032 0.000000000859751 0.000000001462548 0.000000000993664 0.000000001107854 0.000000000999659 0.000000000771878 0.000000000472159 0.000000000070269 0.000000001200487 0.000000001542243 0.000000001882154 0.000000000609607 0.000000001222664 0.000000000064088 0.000000001538543 0.000000002884427 0.000000000695664 0.000000000769557 0.000000001710746 0.000000000343157 0.000000000763289 0.000000000431855 0.000000002777728 0.000000000056462 0.000000000047087 0.000000000701149 0.000000000563453 0.000000000823008 0.000000000066893 0.000000000325269 0.000000001810070 0.000000000049624 0.000000004130387 0.000000000402690 0.000000001044378 0.000000004186735 0.000000000056487 0.000000001079578 0.000000000355043 0.000000000138998 0.000000000755534 0.000000000293182 0.000000001222083 0.000000000914427 0.000000000147813 0.000000000764959 0.000000000973378 0.000000001657376 0.000000000462270 0.000000000638523 0.000000000673499 0.000000000608607 0.000000000558148 0.000000001307585 0.000000001332362 0.000000001111456 0.000000000716239 0.000000000910989 0.000000001308269 0.000000001065300 0.000000001168918 0.000000000168537 0.000000003018875 0.000000000285455 0.000000000945060 0.000000001306057 0.000000000845781 0.000000000248855 0.000000000346633 0.000000001374552 0.000000000319612 0.000000000550708 0.000000000929787 0.000000001535389 0.000000000687138 0.000000000595095 0.000000000229178 0.000000000884704 0.000000000127120 0.000000000327480 0.000000000815123 0.000000000503624 0.000000001338608 0.000000001367668 0.000000000973663 0.000000000121349 0.000000001465999 0.000000000847694 0.000000000459586 0.000000001435985 0.000000001697083 0.000000000759746 0.000000001004453 0.000000000965014 0.000000000615995 0.000000000463193 0.000000002456620 0.000000003605180 0.000000001028402 0.000000001110276 0.000000000130221 0.000000000335818 0.000000001443000 
				</DataArray>
				<DataArray type="Float64" Name="v" format="ascii">